 BEGIN_INFO
   #
   # this is a Band-XCRYSDEN-Structure-File
   # aimed at Visualization of Fermi Surface
   #
   # Case:   MgB2_fs.bxsf
   #
 Fermi Energy:          7.4575
 END_INFO
 BEGIN_BLOCK_BANDGRID_3D
 band_energies
 BANDGRID_3D_BANDS
    3
   41   41   41
  0.000000  0.000000  0.000000
  1.000000  0.577350  0.000000
  0.000000  1.154701  0.000000
  0.000000  0.000000  0.875604
BAND:   3
    7.8209    7.8229    7.8288    7.8384    7.8517    7.8683
    7.8901    7.9157    7.9400    7.9658    7.9926    8.0197
    8.0412    8.0668    8.0907    8.1123    8.1309    8.1459
    8.1622    8.1690    8.1713    8.1690    8.1622    8.1459
    8.1309    8.1123    8.0907    8.0668    8.0412    8.0197
    7.9926    7.9658    7.9400    7.9157    7.8901    7.8683
    7.8517    7.8384    7.8288    7.8229    7.8209    7.7644
    7.7664    7.7713    7.7812    7.7958    7.8131    7.8337
    7.8572    7.8819    7.9082    7.9356    7.9614    7.9881
    8.0120    8.0373    8.0593    8.0809    8.0963    8.1076
    8.1146    8.1195    8.1146    8.1076    8.0963    8.0809
    8.0593    8.0373    8.0120    7.9881    7.9614    7.9356
    7.9082    7.8819    7.8572    7.8337    7.8131    7.7958
    7.7812    7.7713    7.7664    7.7644    7.5946    7.5968
    7.6032    7.6136    7.6282    7.6460    7.6672    7.6912
    7.7174    7.7451    7.7729    7.8017    7.8294    7.8560
    7.8831    7.9065    7.9266    7.9430    7.9550    7.9609
    7.9634    7.9609    7.9550    7.9430    7.9266    7.9065
    7.8831    7.8560    7.8294    7.8017    7.7729    7.7451
    7.7174    7.6912    7.6672    7.6460    7.6282    7.6136
    7.6032    7.5968    7.5946    7.3268    7.3285    7.3353
    7.3470    7.3624    7.3817    7.4042    7.4292    7.4568
    7.4862    7.5165    7.5497    7.5819    7.6131    7.6402
    7.6644    7.6850    7.7019    7.7143    7.7223    7.7251
    7.7223    7.7143    7.7019    7.6850    7.6644    7.6402
    7.6131    7.5819    7.5497    7.5165    7.4862    7.4568
    7.4292    7.4042    7.3817    7.3624    7.3470    7.3353
    7.3285    7.3268    6.9791    6.9817    6.9892    7.0014
    7.0183    7.0389    7.0634    7.0905    7.1203    7.1522
    7.1862    7.2217    7.2557    7.2884    7.3186    7.3447
    7.3678    7.3861    7.4005    7.4093    7.4127    7.4093
    7.4005    7.3861    7.3678    7.3447    7.3186    7.2884
    7.2557    7.2217    7.1862    7.1522    7.1203    7.0905
    7.0634    7.0389    7.0183    7.0014    6.9892    6.9817
    6.9791    6.5698    6.5731    6.5815    6.5948    6.6127
    6.6347    6.6606    6.6909    6.7232    6.7594    6.7958
    6.8329    6.8698    6.9044    6.9386    6.9681    6.9941
    7.0153    7.0310    7.0394    7.0421    7.0394    7.0310
    7.0153    6.9941    6.9681    6.9386    6.9044    6.8698
    6.8329    6.7958    6.7594    6.7232    6.6909    6.6606
    6.6347    6.6127    6.5948    6.5815    6.5731    6.5698
    6.1176    6.1199    6.1291    6.1440    6.1632    6.1881
    6.2159    6.2484    6.2837    6.3212    6.3606    6.4008
    6.4397    6.4781    6.5146    6.5483    6.5768    6.6000
    6.6172    6.6281    6.6304    6.6281    6.6172    6.6000
    6.5768    6.5483    6.5146    6.4781    6.4397    6.4008
    6.3606    6.3212    6.2837    6.2484    6.2159    6.1881
    6.1632    6.1440    6.1291    6.1199    6.1176    5.6341
    5.6378    5.6477    5.6643    5.6855    5.7123    5.7420
    5.7756    5.8126    5.8527    5.8936    5.9365    5.9793
    6.0210    6.0605    6.0966    6.1276    6.1535    6.1726
    6.1838    6.1890    6.1838    6.1726    6.1535    6.1276
    6.0966    6.0605    6.0210    5.9793    5.9365    5.8936
    5.8527    5.8126    5.7756    5.7420    5.7123    5.6855
    5.6643    5.6477    5.6378    5.6341    5.1725    5.1527
    5.1559    5.1707    5.1911    5.2167    5.2474    5.2828
    5.3215    5.3639    5.4078    5.4535    5.4993    5.5439
    5.5862    5.6248    5.6591    5.6863    5.7083    5.7209
    5.7249    5.7209    5.7083    5.6863    5.6591    5.6248
    5.5862    5.5439    5.4993    5.4535    5.4078    5.3639
    5.3215    5.2828    5.2474    5.2167    5.1911    5.1707
    5.1559    5.1527    5.1725    5.3547    5.3076    5.1740
    4.9755    4.7699    4.7261    4.7474    4.7816    4.8210
    4.8647    4.9111    4.9591    5.0075    5.0549    5.0997
    5.1411    5.1771    5.2080    5.2300    5.2433    5.2486
    5.2433    5.2300    5.2080    5.1771    5.1411    5.0997
    5.0549    5.0075    4.9591    4.9111    4.8647    4.8210
    4.7816    4.7474    4.7261    4.7699    4.9755    5.1740
    5.3076    5.3547    5.5560    5.5091    5.3744    5.1698
    4.9176    4.6373    4.3788    4.2995    4.3233    4.3638
    4.4103    4.4597    4.5101    4.5599    4.6070    4.6518
    4.6899    4.7215    4.7445    4.7594    4.7638    4.7594
    4.7445    4.7215    4.6899    4.6518    4.6070    4.5599
    4.5101    4.4597    4.4103    4.3638    4.3233    4.2995
    4.3788    4.6373    4.9176    5.1698    5.3744    5.5091
    5.5560    5.7768    5.7295    5.5950    5.3908    5.1363
    4.8504    4.5475    4.2449    3.9786    3.8927    3.9188
    3.9642    4.0143    4.0653    4.1155    4.1611    4.2010
    4.2341    4.2591    4.2740    4.2794    4.2740    4.2591
    4.2341    4.2010    4.1611    4.1155    4.0653    4.0143
    3.9642    3.9188    3.8927    3.9786    4.2449    4.5475
    4.8504    5.1363    5.3908    5.5950    5.7295    5.7768
    5.8922    5.8941    5.8330    5.6297    5.3767    5.0905
    4.7860    4.4746    4.1634    3.8627    3.6055    3.5084
    3.5338    3.5792    3.6277    3.6741    3.7156    3.7504
    3.7759    3.7920    3.7969    3.7920    3.7759    3.7504
    3.7156    3.6741    3.6277    3.5792    3.5338    3.5084
    3.6055    3.8627    4.1634    4.4746    4.7860    5.0905
    5.3767    5.6297    5.8330    5.8941    5.8922    5.7440
    5.7464    5.7525    5.7615    5.6330    5.3481    5.0463
    4.7341    4.4205    4.1123    3.8140    3.5322    3.2860
    3.1536    3.1604    3.1983    3.2378    3.2723    3.2989
    3.3154    3.3211    3.3154    3.2989    3.2723    3.2378
    3.1983    3.1604    3.1536    3.2860    3.5322    3.8140
    4.1123    4.4205    4.7341    5.0463    5.3481    5.6330
    5.7615    5.7525    5.7464    5.7440    5.6142    5.6157
    5.6218    5.6320    5.6447    5.6202    5.3203    5.0102
    4.6979    4.3902    4.0910    3.8031    3.5319    3.2799
    3.0550    2.8749    2.8015    2.8120    2.8333    2.8487
    2.8545    2.8487    2.8333    2.8120    2.8015    2.8749
    3.0550    3.2799    3.5319    3.8031    4.0910    4.3902
    4.6979    5.0102    5.3203    5.6202    5.6447    5.6320
    5.6218    5.6157    5.6142    5.5014    5.5040    5.5105
    5.5204    5.5339    5.5503    5.5696    5.2971    4.9881
    4.6817    4.3835    4.0972    3.8264    3.5726    3.3410
    3.1342    2.9564    2.8110    2.7019    2.6331    2.6092
    2.6331    2.7019    2.8110    2.9564    3.1342    3.3410
    3.5726    3.8264    4.0972    4.3835    4.6817    4.9881
    5.2971    5.5696    5.5503    5.5339    5.5204    5.5105
    5.5040    5.5014    5.4102    5.4124    5.4181    5.4281
    5.4413    5.4578    5.4777    5.4994    5.2820    4.9784
    4.6826    4.3991    4.1304    3.8785    3.6484    3.4432
    3.2670    3.1238    3.0179    2.9519    2.9301    2.9519
    3.0179    3.1238    3.2670    3.4432    3.6484    3.8785
    4.1304    4.3991    4.6826    4.9784    5.2820    5.4994
    5.4777    5.4578    5.4413    5.4281    5.4181    5.4124
    5.4102    5.3381    5.3403    5.3462    5.3558    5.3697
    5.3860    5.4053    5.4272    5.4523    5.2682    4.9751
    4.6951    4.4284    4.1802    3.9521    3.7495    3.5756
    3.4341    3.3303    3.2656    3.2440    3.2656    3.3303
    3.4341    3.5756    3.7495    3.9521    4.1802    4.4284
    4.6951    4.9751    5.2682    5.4523    5.4272    5.4053
    5.3860    5.3697    5.3558    5.3462    5.3403    5.3381
    5.2872    5.2888    5.2944    5.3040    5.3171    5.3342
    5.3538    5.3755    5.3995    5.4262    5.2398    4.9632
    4.6993    4.4538    4.2281    4.0282    3.8559    3.7162
    3.6129    3.5502    3.5291    3.5502    3.6129    3.7162
    3.8559    4.0282    4.2281    4.4538    4.6993    4.9632
    5.2398    5.4262    5.3995    5.3755    5.3538    5.3342
    5.3171    5.3040    5.2944    5.2888    5.2872    5.2556
    5.2576    5.2631    5.2727    5.2860    5.3025    5.3225
    5.3443    5.3687    5.3953    5.4219    5.1634    4.9021
    4.6586    4.4356    4.2371    4.0668    3.9279    3.8257
    3.7640    3.7428    3.7640    3.8257    3.9279    4.0668
    4.2371    4.4356    4.6586    4.9021    5.1634    5.4219
    5.3953    5.3687    5.3443    5.3225    5.3025    5.2860
    5.2727    5.2631    5.2576    5.2556    5.2453    5.2467
    5.2525    5.2621    5.2753    5.2926    5.3115    5.3335
    5.3590    5.3847    5.4117    5.2399    4.9804    4.7381
    4.5152    4.3184    4.1475    4.0098    3.9079    3.8466
    3.8254    3.8466    3.9079    4.0098    4.1475    4.3184
    4.5152    4.7381    4.9804    5.2399    5.4117    5.3847
    5.3590    5.3335    5.3115    5.2926    5.2753    5.2621
    5.2525    5.2467    5.2453    5.2556    5.2576    5.2631
    5.2727    5.2860    5.3025    5.3225    5.3443    5.3687
    5.3953    5.4219    5.1634    4.9021    4.6586    4.4356
    4.2371    4.0668    3.9279    3.8257    3.7640    3.7428
    3.7640    3.8257    3.9279    4.0668    4.2371    4.4356
    4.6586    4.9021    5.1634    5.4219    5.3953    5.3687
    5.3443    5.3225    5.3025    5.2860    5.2727    5.2631
    5.2576    5.2556    5.2872    5.2888    5.2944    5.3040
    5.3171    5.3342    5.3538    5.3755    5.3995    5.4262
    5.2398    4.9632    4.6993    4.4538    4.2281    4.0282
    3.8559    3.7162    3.6129    3.5502    3.5291    3.5502
    3.6129    3.7162    3.8559    4.0282    4.2281    4.4538
    4.6993    4.9632    5.2398    5.4262    5.3995    5.3755
    5.3538    5.3342    5.3171    5.3040    5.2944    5.2888
    5.2872    5.3381    5.3403    5.3462    5.3558    5.3697
    5.3860    5.4053    5.4272    5.4523    5.2682    4.9751
    4.6951    4.4284    4.1802    3.9521    3.7495    3.5756
    3.4341    3.3303    3.2656    3.2440    3.2656    3.3303
    3.4341    3.5756    3.7495    3.9521    4.1802    4.4284
    4.6951    4.9751    5.2682    5.4523    5.4272    5.4053
    5.3860    5.3697    5.3558    5.3462    5.3403    5.3381
    5.4102    5.4124    5.4181    5.4281    5.4413    5.4578
    5.4777    5.4994    5.2820    4.9784    4.6826    4.3991
    4.1304    3.8785    3.6484    3.4432    3.2670    3.1238
    3.0179    2.9519    2.9301    2.9519    3.0179    3.1238
    3.2670    3.4432    3.6484    3.8785    4.1304    4.3991
    4.6826    4.9784    5.2820    5.4994    5.4777    5.4578
    5.4413    5.4281    5.4181    5.4124    5.4102    5.5014
    5.5040    5.5105    5.5204    5.5339    5.5503    5.5696
    5.2971    4.9881    4.6817    4.3835    4.0972    3.8264
    3.5726    3.3410    3.1342    2.9564    2.8110    2.7019
    2.6331    2.6092    2.6331    2.7019    2.8110    2.9564
    3.1342    3.3410    3.5726    3.8264    4.0972    4.3835
    4.6817    4.9881    5.2971    5.5696    5.5503    5.5339
    5.5204    5.5105    5.5040    5.5014    5.6142    5.6157
    5.6218    5.6320    5.6447    5.6202    5.3203    5.0102
    4.6979    4.3902    4.0910    3.8031    3.5319    3.2799
    3.0550    2.8749    2.8015    2.8120    2.8333    2.8487
    2.8545    2.8487    2.8333    2.8120    2.8015    2.8749
    3.0550    3.2799    3.5319    3.8031    4.0910    4.3902
    4.6979    5.0102    5.3203    5.6202    5.6447    5.6320
    5.6218    5.6157    5.6142    5.7440    5.7464    5.7525
    5.7615    5.6330    5.3481    5.0463    4.7341    4.4205
    4.1123    3.8140    3.5322    3.2860    3.1536    3.1604
    3.1983    3.2378    3.2723    3.2989    3.3154    3.3211
    3.3154    3.2989    3.2723    3.2378    3.1983    3.1604
    3.1536    3.2860    3.5322    3.8140    4.1123    4.4205
    4.7341    5.0463    5.3481    5.6330    5.7615    5.7525
    5.7464    5.7440    5.8922    5.8941    5.8330    5.6297
    5.3767    5.0905    4.7860    4.4746    4.1634    3.8627
    3.6055    3.5084    3.5338    3.5792    3.6277    3.6741
    3.7156    3.7504    3.7759    3.7920    3.7969    3.7920
    3.7759    3.7504    3.7156    3.6741    3.6277    3.5792
    3.5338    3.5084    3.6055    3.8627    4.1634    4.4746
    4.7860    5.0905    5.3767    5.6297    5.8330    5.8941
    5.8922    5.7768    5.7295    5.5950    5.3908    5.1363
    4.8504    4.5475    4.2449    3.9786    3.8927    3.9188
    3.9642    4.0143    4.0653    4.1155    4.1611    4.2010
    4.2341    4.2591    4.2740    4.2794    4.2740    4.2591
    4.2341    4.2010    4.1611    4.1155    4.0653    4.0143
    3.9642    3.9188    3.8927    3.9786    4.2449    4.5475
    4.8504    5.1363    5.3908    5.5950    5.7295    5.7768
    5.5560    5.5091    5.3744    5.1698    4.9176    4.6373
    4.3788    4.2995    4.3233    4.3638    4.4103    4.4597
    4.5101    4.5599    4.6070    4.6518    4.6899    4.7215
    4.7445    4.7594    4.7638    4.7594    4.7445    4.7215
    4.6899    4.6518    4.6070    4.5599    4.5101    4.4597
    4.4103    4.3638    4.3233    4.2995    4.3788    4.6373
    4.9176    5.1698    5.3744    5.5091    5.5560    5.3547
    5.3076    5.1740    4.9755    4.7699    4.7261    4.7474
    4.7816    4.8210    4.8647    4.9111    4.9591    5.0075
    5.0549    5.0997    5.1411    5.1771    5.2080    5.2300
    5.2433    5.2486    5.2433    5.2300    5.2080    5.1771
    5.1411    5.0997    5.0549    5.0075    4.9591    4.9111
    4.8647    4.8210    4.7816    4.7474    4.7261    4.7699
    4.9755    5.1740    5.3076    5.3547    5.1725    5.1527
    5.1559    5.1707    5.1911    5.2167    5.2474    5.2828
    5.3215    5.3639    5.4078    5.4535    5.4993    5.5439
    5.5862    5.6248    5.6591    5.6863    5.7083    5.7209
    5.7249    5.7209    5.7083    5.6863    5.6591    5.6248
    5.5862    5.5439    5.4993    5.4535    5.4078    5.3639
    5.3215    5.2828    5.2474    5.2167    5.1911    5.1707
    5.1559    5.1527    5.1725    5.6341    5.6378    5.6477
    5.6643    5.6855    5.7123    5.7420    5.7756    5.8126
    5.8527    5.8936    5.9365    5.9793    6.0210    6.0605
    6.0966    6.1276    6.1535    6.1726    6.1838    6.1890
    6.1838    6.1726    6.1535    6.1276    6.0966    6.0605
    6.0210    5.9793    5.9365    5.8936    5.8527    5.8126
    5.7756    5.7420    5.7123    5.6855    5.6643    5.6477
    5.6378    5.6341    6.1176    6.1199    6.1291    6.1440
    6.1632    6.1881    6.2159    6.2484    6.2837    6.3212
    6.3606    6.4008    6.4397    6.4781    6.5146    6.5483
    6.5768    6.6000    6.6172    6.6281    6.6304    6.6281
    6.6172    6.6000    6.5768    6.5483    6.5146    6.4781
    6.4397    6.4008    6.3606    6.3212    6.2837    6.2484
    6.2159    6.1881    6.1632    6.1440    6.1291    6.1199
    6.1176    6.5698    6.5731    6.5815    6.5948    6.6127
    6.6347    6.6606    6.6909    6.7232    6.7594    6.7958
    6.8329    6.8698    6.9044    6.9386    6.9681    6.9941
    7.0153    7.0310    7.0394    7.0421    7.0394    7.0310
    7.0153    6.9941    6.9681    6.9386    6.9044    6.8698
    6.8329    6.7958    6.7594    6.7232    6.6909    6.6606
    6.6347    6.6127    6.5948    6.5815    6.5731    6.5698
    6.9791    6.9817    6.9892    7.0014    7.0183    7.0389
    7.0634    7.0905    7.1203    7.1522    7.1862    7.2217
    7.2557    7.2884    7.3186    7.3447    7.3678    7.3861
    7.4005    7.4093    7.4127    7.4093    7.4005    7.3861
    7.3678    7.3447    7.3186    7.2884    7.2557    7.2217
    7.1862    7.1522    7.1203    7.0905    7.0634    7.0389
    7.0183    7.0014    6.9892    6.9817    6.9791    7.3268
    7.3285    7.3353    7.3470    7.3624    7.3817    7.4042
    7.4292    7.4568    7.4862    7.5165    7.5497    7.5819
    7.6131    7.6402    7.6644    7.6850    7.7019    7.7143
    7.7223    7.7251    7.7223    7.7143    7.7019    7.6850
    7.6644    7.6402    7.6131    7.5819    7.5497    7.5165
    7.4862    7.4568    7.4292    7.4042    7.3817    7.3624
    7.3470    7.3353    7.3285    7.3268    7.5946    7.5968
    7.6032    7.6136    7.6282    7.6460    7.6672    7.6912
    7.7174    7.7451    7.7729    7.8017    7.8294    7.8560
    7.8831    7.9065    7.9266    7.9430    7.9550    7.9609
    7.9634    7.9609    7.9550    7.9430    7.9266    7.9065
    7.8831    7.8560    7.8294    7.8017    7.7729    7.7451
    7.7174    7.6912    7.6672    7.6460    7.6282    7.6136
    7.6032    7.5968    7.5946    7.7644    7.7664    7.7713
    7.7812    7.7958    7.8131    7.8337    7.8572    7.8819
    7.9082    7.9356    7.9614    7.9881    8.0120    8.0373
    8.0593    8.0809    8.0963    8.1076    8.1146    8.1195
    8.1146    8.1076    8.0963    8.0809    8.0593    8.0373
    8.0120    7.9881    7.9614    7.9356    7.9082    7.8819
    7.8572    7.8337    7.8131    7.7958    7.7812    7.7713
    7.7664    7.7644    7.8209    7.8229    7.8288    7.8384
    7.8517    7.8683    7.8901    7.9157    7.9400    7.9658
    7.9926    8.0197    8.0412    8.0668    8.0907    8.1123
    8.1309    8.1459    8.1622    8.1690    8.1713    8.1690
    8.1622    8.1459    8.1309    8.1123    8.0907    8.0668
    8.0412    8.0197    7.9926    7.9658    7.9400    7.9157
    7.8901    7.8683    7.8517    7.8384    7.8288    7.8229
    7.8209    7.7644    7.7664    7.7713    7.7812    7.7958
    7.8131    7.8337    7.8572    7.8819    7.9082    7.9356
    7.9614    7.9881    8.0120    8.0373    8.0593    8.0809
    8.0963    8.1076    8.1146    8.1195    8.1146    8.1076
    8.0963    8.0809    8.0593    8.0373    8.0120    7.9881
    7.9614    7.9356    7.9082    7.8819    7.8572    7.8337
    7.8131    7.7958    7.7812    7.7713    7.7664    7.7644
    7.6528    7.6548    7.6610    7.6722    7.6861    7.7035
    7.7228    7.7461    7.7730    7.8002    7.8267    7.8550
    7.8831    7.9094    7.9346    7.9575    7.9783    7.9956
    8.0073    8.0131    8.0163    8.0131    8.0073    7.9956
    7.9783    7.9575    7.9346    7.9094    7.8831    7.8550
    7.8267    7.8002    7.7730    7.7461    7.7228    7.7035
    7.6861    7.6722    7.6610    7.6548    7.6528    7.4377
    7.4405    7.4474    7.4582    7.4729    7.4916    7.5135
    7.5382    7.5650    7.5937    7.6236    7.6541    7.6852
    7.7139    7.7405    7.7640    7.7852    7.8017    7.8131
    7.8192    7.8223    7.8192    7.8131    7.8017    7.7852
    7.7640    7.7405    7.7139    7.6852    7.6541    7.6236
    7.5937    7.5650    7.5382    7.5135    7.4916    7.4729
    7.4582    7.4474    7.4405    7.4377    7.1366    7.1393
    7.1458    7.1574    7.1734    7.1937    7.2171    7.2433
    7.2720    7.3027    7.3364    7.3704    7.4030    7.4344
    7.4631    7.4890    7.5107    7.5283    7.5417    7.5496
    7.5525    7.5496    7.5417    7.5283    7.5107    7.4890
    7.4631    7.4344    7.4030    7.3704    7.3364    7.3027
    7.2720    7.2433    7.2171    7.1937    7.1734    7.1574
    7.1458    7.1393    7.1366    6.7632    6.7655    6.7734
    6.7858    6.8033    6.8248    6.8497    6.8781    6.9102
    6.9438    6.9793    7.0156    7.0510    7.0860    7.1171
    7.1449    7.1698    7.1903    7.2042    7.2135    7.2166
    7.2135    7.2042    7.1903    7.1698    7.1449    7.1171
    7.0860    7.0510    7.0156    6.9793    6.9438    6.9102
    6.8781    6.8497    6.8248    6.8033    6.7858    6.7734
    6.7655    6.7632    6.3363    6.3392    6.3478    6.3613
    6.3803    6.4032    6.4309    6.4621    6.4954    6.5323
    6.5703    6.6090    6.6469    6.6832    6.7190    6.7505
    6.7774    6.8001    6.8166    6.8256    6.8293    6.8256
    6.8166    6.8001    6.7774    6.7505    6.7190    6.6832
    6.6469    6.6090    6.5703    6.5323    6.4954    6.4621
    6.4309    6.4032    6.3803    6.3613    6.3478    6.3392
    6.3363    5.8706    5.8741    5.8840    5.8996    5.9201
    5.9452    5.9743    6.0069    6.0431    6.0819    6.1220
    6.1629    6.2044    6.2448    6.2829    6.3177    6.3478
    6.3721    6.3905    6.4015    6.4053    6.4015    6.3905
    6.3721    6.3478    6.3177    6.2829    6.2448    6.2044
    6.1629    6.1220    6.0819    6.0431    6.0069    5.9743
    5.9452    5.9201    5.8996    5.8840    5.8741    5.8706
    5.3805    5.3850    5.3975    5.4138    5.4347    5.4615
    5.4921    5.5267    5.5646    5.6055    5.6481    5.6925
    5.7368    5.7802    5.8213    5.8588    5.8911    5.9181
    5.9375    5.9509    5.9548    5.9509    5.9375    5.9181
    5.8911    5.8588    5.8213    5.7802    5.7368    5.6925
    5.6481    5.6055    5.5646    5.5267    5.4921    5.4615
    5.4347    5.4138    5.3975    5.3850    5.3805    5.2692
    5.2226    5.0938    4.9546    4.9444    4.9657    4.9954
    5.0306    5.0700    5.1133    5.1591    5.2057    5.2528
    5.2989    5.3425    5.3825    5.4176    5.4469    5.4685
    5.4817    5.4862    5.4817    5.4685    5.4469    5.4176
    5.3825    5.3425    5.2989    5.2528    5.2057    5.1591
    5.1133    5.0700    5.0306    4.9954    4.9657    4.9444
    4.9546    5.0938    5.2226    5.2692    5.4609    5.4140
    5.2794    5.0757    4.8268    4.5822    4.5108    4.5332
    4.5707    4.6140    4.6610    4.7100    4.7594    4.8078
    4.8543    4.8968    4.9351    4.9658    4.9883    5.0023
    5.0072    5.0023    4.9883    4.9658    4.9351    4.8968
    4.8543    4.8078    4.7594    4.7100    4.6610    4.6140
    4.5707    4.5332    4.5108    4.5822    4.8268    5.0757
    5.2794    5.4140    5.4609    5.6722    5.6248    5.4903
    5.2856    5.0310    4.7460    4.4494    4.1826    4.0958
    4.1205    4.1639    4.2127    4.2636    4.3140    4.3629
    4.4078    4.4472    4.4798    4.5039    4.5183    4.5233
    4.5183    4.5039    4.4798    4.4472    4.4078    4.3629
    4.3140    4.2636    4.2127    4.1639    4.1205    4.0958
    4.1826    4.4494    4.7460    5.0310    5.2856    5.4903
    5.6248    5.6722    5.9014    5.8532    5.7189    5.5155
    5.2610    4.9753    4.6708    4.3615    4.0566    3.7925
    3.7011    3.7269    3.7731    3.8241    3.8736    3.9198
    3.9609    3.9947    4.0197    4.0352    4.0404    4.0352
    4.0197    3.9947    3.9609    3.9198    3.8736    3.8241
    3.7731    3.7269    3.7011    3.7925    4.0566    4.3615
    4.6708    4.9753    5.2610    5.5155    5.7189    5.8532
    5.9014    5.7649    5.7667    5.7716    5.7509    5.5089
    5.2245    4.9211    4.6091    4.2964    3.9897    3.6968
    3.4435    3.3320    3.3501    3.3931    3.4381    3.4793
    3.5142    3.5404    3.5568    3.5622    3.5568    3.5404
    3.5142    3.4793    3.4381    3.3931    3.3501    3.3320
    3.4435    3.6968    3.9897    4.2964    4.6091    4.9211
    5.2245    5.5089    5.7509    5.7716    5.7667    5.7649
    5.6259    5.6276    5.6334    5.6422    5.6524    5.4877
    5.1883    4.8773    4.5647    4.2568    3.9576    3.6711
    3.4029    3.1637    3.0017    2.9821    3.0111    3.0430
    3.0689    3.0854    3.0911    3.0854    3.0689    3.0430
    3.0111    2.9821    3.0017    3.1637    3.4029    3.6711
    3.9576    4.2568    4.5647    4.8773    5.1883    5.4877
    5.6524    5.6422    5.6334    5.6276    5.6259    5.5045
    5.5063    5.5124    5.5220    5.5348    5.5501    5.4636
    5.1588    4.8489    4.5423    4.2436    3.9570    3.6850
    3.4312    3.2000    2.9952    2.8220    2.6904    2.6291
    2.6269    2.6301    2.6269    2.6291    2.6904    2.8220
    2.9952    3.2000    3.4312    3.6850    3.9570    4.2436
    4.5423    4.8489    5.1588    5.4636    5.5501    5.5348
    5.5220    5.5124    5.5063    5.5045    5.4015    5.4042
    5.4104    5.4204    5.4335    5.4500    5.4688    5.4387
    5.1409    4.8371    4.5406    4.2559    3.9860    3.7332
    3.5022    3.2962    3.1190    2.9743    2.8675    2.8005
    2.7778    2.8005    2.8675    2.9743    3.1190    3.2962
    3.5022    3.7332    3.9860    4.2559    4.5406    4.8371
    5.1409    5.4387    5.4688    5.4500    5.4335    5.4204
    5.4104    5.4042    5.4015    5.3196    5.3218    5.3281
    5.3377    5.3517    5.3684    5.3880    5.4099    5.4122
    5.1316    4.8384    4.5563    4.2891    4.0390    3.8102
    3.6065    3.4315    3.2892    3.1843    3.1192    3.0976
    3.1192    3.1843    3.2892    3.4315    3.6065    3.8102
    4.0390    4.2891    4.5563    4.8384    5.1316    5.4122
    5.4099    5.3880    5.3684    5.3517    5.3377    5.3281
    5.3218    5.3196    5.2579    5.2599    5.2658    5.2756
    5.2894    5.3063    5.3263    5.3488    5.3728    5.3861
    5.1203    4.8419    4.5777    4.3309    4.1040    3.9027
    3.7299    3.5894    3.4859    3.4223    3.4010    3.4223
    3.4859    3.5894    3.7299    3.9027    4.1040    4.3309
    4.5777    4.8419    5.1203    5.3861    5.3728    5.3488
    5.3263    5.3063    5.2894    5.2756    5.2658    5.2599
    5.2579    5.2166    5.2185    5.2243    5.2341    5.2474
    5.2646    5.2844    5.3075    5.3320    5.3588    5.3538
    5.0826    4.8208    4.5767    4.3527    4.1532    3.9821
    3.8434    3.7406    3.6784    3.6572    3.6784    3.7406
    3.8434    3.9821    4.1532    4.3527    4.5767    4.8208
    5.0826    5.3538    5.3588    5.3320    5.3075    5.2844
    5.2646    5.2474    5.2341    5.2243    5.2185    5.2166
    5.1957    5.1975    5.2032    5.2130    5.2267    5.2435
    5.2639    5.2866    5.3120    5.3389    5.3661    5.2286
    4.9689    4.7262    4.5034    4.3059    4.1359    3.9977
    3.8957    3.8343    3.8131    3.8343    3.8957    3.9977
    4.1359    4.3059    4.5034    4.7262    4.9689    5.2286
    5.3661    5.3389    5.3120    5.2866    5.2639    5.2435
    5.2267    5.2130    5.2032    5.1975    5.1957    5.1957
    5.1975    5.2032    5.2130    5.2267    5.2435    5.2639
    5.2866    5.3120    5.3389    5.3661    5.2286    4.9689
    4.7262    4.5034    4.3059    4.1359    3.9977    3.8957
    3.8343    3.8131    3.8343    3.8957    3.9977    4.1359
    4.3059    4.5034    4.7262    4.9689    5.2286    5.3661
    5.3389    5.3120    5.2866    5.2639    5.2435    5.2267
    5.2130    5.2032    5.1975    5.1957    5.2166    5.2185
    5.2243    5.2341    5.2474    5.2646    5.2844    5.3075
    5.3320    5.3588    5.3538    5.0826    4.8208    4.5767
    4.3527    4.1532    3.9821    3.8434    3.7406    3.6784
    3.6572    3.6784    3.7406    3.8434    3.9821    4.1532
    4.3527    4.5767    4.8208    5.0826    5.3538    5.3588
    5.3320    5.3075    5.2844    5.2646    5.2474    5.2341
    5.2243    5.2185    5.2166    5.2579    5.2599    5.2658
    5.2756    5.2894    5.3063    5.3263    5.3488    5.3728
    5.3861    5.1203    4.8419    4.5777    4.3309    4.1040
    3.9027    3.7299    3.5894    3.4859    3.4223    3.4010
    3.4223    3.4859    3.5894    3.7299    3.9027    4.1040
    4.3309    4.5777    4.8419    5.1203    5.3861    5.3728
    5.3488    5.3263    5.3063    5.2894    5.2756    5.2658
    5.2599    5.2579    5.3196    5.3218    5.3281    5.3377
    5.3517    5.3684    5.3880    5.4099    5.4122    5.1316
    4.8384    4.5563    4.2891    4.0390    3.8102    3.6065
    3.4315    3.2892    3.1843    3.1192    3.0976    3.1192
    3.1843    3.2892    3.4315    3.6065    3.8102    4.0390
    4.2891    4.5563    4.8384    5.1316    5.4122    5.4099
    5.3880    5.3684    5.3517    5.3377    5.3281    5.3218
    5.3196    5.4015    5.4042    5.4104    5.4204    5.4335
    5.4500    5.4688    5.4387    5.1409    4.8371    4.5406
    4.2559    3.9860    3.7332    3.5022    3.2962    3.1190
    2.9743    2.8675    2.8005    2.7778    2.8005    2.8675
    2.9743    3.1190    3.2962    3.5022    3.7332    3.9860
    4.2559    4.5406    4.8371    5.1409    5.4387    5.4688
    5.4500    5.4335    5.4204    5.4104    5.4042    5.4015
    5.5045    5.5063    5.5124    5.5220    5.5348    5.5501
    5.4636    5.1588    4.8489    4.5423    4.2436    3.9570
    3.6850    3.4312    3.2000    2.9952    2.8220    2.6904
    2.6291    2.6269    2.6301    2.6269    2.6291    2.6904
    2.8220    2.9952    3.2000    3.4312    3.6850    3.9570
    4.2436    4.5423    4.8489    5.1588    5.4636    5.5501
    5.5348    5.5220    5.5124    5.5063    5.5045    5.6259
    5.6276    5.6334    5.6422    5.6524    5.4877    5.1883
    4.8773    4.5647    4.2568    3.9576    3.6711    3.4029
    3.1637    3.0017    2.9821    3.0111    3.0430    3.0689
    3.0854    3.0911    3.0854    3.0689    3.0430    3.0111
    2.9821    3.0017    3.1637    3.4029    3.6711    3.9576
    4.2568    4.5647    4.8773    5.1883    5.4877    5.6524
    5.6422    5.6334    5.6276    5.6259    5.7649    5.7667
    5.7716    5.7509    5.5089    5.2245    4.9211    4.6091
    4.2964    3.9897    3.6968    3.4435    3.3320    3.3501
    3.3931    3.4381    3.4793    3.5142    3.5404    3.5568
    3.5622    3.5568    3.5404    3.5142    3.4793    3.4381
    3.3931    3.3501    3.3320    3.4435    3.6968    3.9897
    4.2964    4.6091    4.9211    5.2245    5.5089    5.7509
    5.7716    5.7667    5.7649    5.9014    5.8532    5.7189
    5.5155    5.2610    4.9753    4.6708    4.3615    4.0566
    3.7925    3.7011    3.7269    3.7731    3.8241    3.8736
    3.9198    3.9609    3.9947    4.0197    4.0352    4.0404
    4.0352    4.0197    3.9947    3.9609    3.9198    3.8736
    3.8241    3.7731    3.7269    3.7011    3.7925    4.0566
    4.3615    4.6708    4.9753    5.2610    5.5155    5.7189
    5.8532    5.9014    5.6722    5.6248    5.4903    5.2856
    5.0310    4.7460    4.4494    4.1826    4.0958    4.1205
    4.1639    4.2127    4.2636    4.3140    4.3629    4.4078
    4.4472    4.4798    4.5039    4.5183    4.5233    4.5183
    4.5039    4.4798    4.4472    4.4078    4.3629    4.3140
    4.2636    4.2127    4.1639    4.1205    4.0958    4.1826
    4.4494    4.7460    5.0310    5.2856    5.4903    5.6248