BEGIN_BLOCK_DATAGRID_3D 
bxsf2xsf_created_by_RC_Xiao 
BEGIN_DATAGRID_3D 
41 41  41  
0.000000  0.000000  0.000000 
1.000000  0.577350  0.000000 
0.000000  1.154701  0.000000 
0.000000  0.000000  0.875604 
0.363400  0.334900   0.255500   0.127200   -0.036000   -0.222800 
-0.422700  -0.627600   -0.832700   -1.032300   -1.223200   -1.401100 
-1.443400  -1.191400   -0.927600   -0.656000   -0.383000   -0.125800 
0.099600  0.259500   0.319500   0.259500   0.099600   -0.125800 
-0.383000  -0.656000   -0.927600   -1.191400   -1.443400   -1.401100 
-1.223200  -1.032300   -0.832700   -0.627600   -0.422700   -0.222800 
-0.036000  0.127200   0.255500   0.334900   0.363400   0.334900 
0.278400  0.167800   0.017800   -0.162700   -0.360900   -0.568400 
-0.776900  -0.981000   -1.178400   -1.363600   -1.536200   -1.311200 
-1.052800  -0.784000   -0.510200   -0.243500   0.001200   0.198600 
0.313400  0.313400   0.198600   0.001200   -0.243500   -0.510200 
-0.784000  -1.052800   -1.311200   -1.536200   -1.363600   -1.178400 
-0.981000  -0.776900   -0.568400   -0.360900   -0.162700   0.017800 
0.167800  0.278400   0.334900   0.334900   0.255500   0.167800 
0.024700  -0.157800   -0.362300   -0.578900   -0.797700   -1.012400 
-1.217800  -1.414200   -1.595700   -1.411900   -1.159700   -0.895300 
-0.623300  -0.351100   -0.091800   0.133700   0.295200   0.355400 
0.295200  0.133700   -0.091800   -0.351100   -0.623300   -0.895300 
-1.159700  -1.411900   -1.595700   -1.414200   -1.217800   -1.012400 
-0.797700  -0.578900   -0.362300   -0.157800   0.024700   0.167800 
0.255500  0.278400   0.255500   0.127200   0.017800   -0.157800 
-0.377500  -0.617200   -0.858100   -1.093800   -1.318800   -1.529600 
-1.720900  -1.492400   -1.247600   -0.988600   -0.720100   -0.445300 
-0.177500  0.069300   0.268200   0.384300   0.384300   0.268200 
0.069300  -0.177500   -0.445300   -0.720100   -0.988600   -1.247600 
-1.492400  -1.720900   -1.529600   -1.318800   -1.093800   -0.858100 
-0.617200  -0.377500   -0.157800   0.017800   0.127200   0.167800 
0.167800  0.127200   -0.036000   -0.162700   -0.362300   -0.617200 
-0.895200  -1.172900   -1.432800   -1.673200   -1.773300   -1.553600 
-1.316400  -1.064300   -0.799500   -0.527300   -0.253600   0.008100 
0.236800  0.400900   0.463100   0.400900   0.236800   0.008100 
-0.253600  -0.527300   -0.799500   -1.064300   -1.316400   -1.553600 
-1.773300  -1.673200   -1.432800   -1.172900   -0.895200   -0.617200 
-0.362300  -0.162700   -0.036000   0.017800   0.024700   0.017800 
-0.036000  -0.222800   -0.360900   -0.578900   -0.858100   -1.172900 
-1.489800  -1.786700   -1.805400   -1.594800   -1.367000   -1.122000 
-0.863400  -0.594200   -0.319300   -0.047700   0.203300   0.409200 
0.527400  0.527400   0.409200   0.203300   -0.047700   -0.319300 
-0.594200  -0.863400   -1.122000   -1.367000   -1.594800   -1.805400 
-1.786700  -1.489800   -1.172900   -0.858100   -0.578900   -0.360900 
-0.222800  -0.162700   -0.157800   -0.157800   -0.162700   -0.222800 
-0.422700  -0.568400   -0.797700   -1.093800   -1.432800   -1.786700 
-1.816100  -1.615500   -1.396800   -1.160400   -0.908900   -0.644500 
-0.371800  -0.095600   0.169800   0.405900   0.576300   0.641400 
0.576300  0.405900   0.169800   -0.095600   -0.371800   -0.644500 
-0.908900  -1.160400   -1.396800   -1.615500   -1.816100   -1.786700 
-1.432800  -1.093800   -0.797700   -0.568400   -0.422700   -0.360900 
-0.362300  -0.377500   -0.362300   -0.360900   -0.422700   -0.627600 
-0.776900  -1.012400   -1.318800   -1.673200   -1.805400   -1.615500 
-1.406400  -1.179600   -0.936200   -0.678700   -0.409600   -0.132600 
0.140900  0.398200   0.612500   0.740600   0.740600   0.612500 
0.398200  0.140900   -0.132600   -0.409600   -0.678700   -0.936200 
-1.179600  -1.406400   -1.615500   -1.805400   -1.673200   -1.318800 
-1.012400  -0.776900   -0.627600   -0.568400   -0.578900   -0.617200 
-0.617200  -0.578900   -0.568400   -0.627600   -0.832700   -0.981000 
-1.217800  -1.529600   -1.773300   -1.594800   -1.396800   -1.179600 
-0.945700  -0.695900   -0.432100   -0.158300   0.118800   0.390100 
0.637000  0.821200   0.890900   0.821200   0.637000   0.390100 
0.118800  -0.158300   -0.432100   -0.695900   -0.945700   -1.179600 
-1.396800  -1.594800   -1.773300   -1.529600   -1.217800   -0.981000 
-0.832700  -0.776900   -0.797700   -0.858100   -0.895200   -0.858100 
-0.797700  -0.776900   -0.832700   -1.032300   -1.178400   -1.414200 
-1.720900  -1.553600   -1.367000   -1.160400   -0.936200   -0.695900 
-0.440200  -0.172700   0.105300   0.384200   0.651000   0.880300 
1.023000  1.023000   0.880300   0.651000   0.384200   0.105300 
-0.172700  -0.440200   -0.695900   -0.936200   -1.160400   -1.367000 
-1.553600  -1.720900   -1.414200   -1.178400   -1.032300   -0.981000 
-1.012400  -1.093800   -1.172900   -1.172900   -1.093800   -1.012400 
-0.981000  -1.032300   -1.223200   -1.363600   -1.595700   -1.492400 
-1.316400  -1.122000   -0.908900   -0.678700   -0.432100   -0.172700 
0.101500  0.380200   0.658000   0.918800   1.126200   1.212700 
1.126200  0.918800   0.658000   0.380200   0.101500   -0.172700 
-0.432100  -0.678700   -0.908900   -1.122000   -1.316400   -1.492400 
-1.595700  -1.363600   -1.223200   -1.178400   -1.217800   -1.318800 
-1.432800  -1.489800   -1.432800   -1.318800   -1.217800   -1.178400 
-1.223200  -1.401100   -1.536200   -1.411900   -1.247600   -1.064300 
-0.863400  -0.644500   -0.409600   -0.158300   0.105300   0.380200 
0.660100  0.937500   1.191800   1.371100   1.371100   1.191800 
0.937500  0.660100   0.380200   0.105300   -0.158300   -0.409600 
-0.644500  -0.863400   -1.064300   -1.247600   -1.411900   -1.536200 
-1.401100  -1.363600   -1.414200   -1.529600   -1.673200   -1.786700 
-1.786700  -1.673200   -1.529600   -1.414200   -1.363600   -1.401100 
-1.443400  -1.311200   -1.159700   -0.988600   -0.799500   -0.594200 
-0.371800  -0.132600   0.118800   0.384200   0.658000   0.937500 
1.214700  1.468700   1.599000   1.468700   1.214700   0.937500 
0.658000  0.384200   0.118800   -0.132600   -0.371800   -0.594200 
-0.799500  -0.988600   -1.159700   -1.311200   -1.443400   -1.536200 
-1.595700  -1.720900   -1.773300   -1.805400   -1.816100   -1.805400 
-1.773300  -1.720900   -1.595700   -1.536200   -1.443400   -1.191400 
-1.052800  -0.895300   -0.720100   -0.527300   -0.319300   -0.095600 
0.140900  0.390100   0.651000   0.918800   1.191800   1.468700 
1.735300  1.735300   1.468700   1.191800   0.918800   0.651000 
0.390100  0.140900   -0.095600   -0.319300   -0.527300   -0.720100 
-0.895300  -1.052800   -1.191400   -1.311200   -1.411900   -1.492400 
-1.553600  -1.594800   -1.615500   -1.615500   -1.594800   -1.553600 
-1.492400  -1.411900   -1.311200   -1.191400   -0.927600   -0.784000 
-0.623300  -0.445300   -0.253600   -0.047700   0.169800   0.398200 
0.637000  0.880300   1.126200   1.371100   1.599000   1.735300 
1.599000  1.371100   1.126200   0.880300   0.637000   0.398200 
0.169800  -0.047700   -0.253600   -0.445300   -0.623300   -0.784000 
-0.927600  -1.052800   -1.159700   -1.247600   -1.316400   -1.367000 
-1.396800  -1.406400   -1.396800   -1.367000   -1.316400   -1.247600 
-1.159700  -1.052800   -0.927600   -0.656000   -0.510200   -0.351100 
-0.177500  0.008100   0.203300   0.405900   0.612500   0.821200 
1.023000  1.212700   1.371100   1.468700   1.468700   1.371100 
1.212700  1.023000   0.821200   0.612500   0.405900   0.203300 
0.008100  -0.177500   -0.351100   -0.510200   -0.656000   -0.784000 
-0.895300  -0.988600   -1.064300   -1.122000   -1.160400   -1.179600 
-1.179600  -1.160400   -1.122000   -1.064300   -0.988600   -0.895300 
-0.784000  -0.656000   -0.383000   -0.243500   -0.091800   0.069300 
0.236800  0.409200   0.576300   0.740600   0.890900   1.023000 
1.126200  1.191800   1.214700   1.191800   1.126200   1.023000 
0.890900  0.740600   0.576300   0.409200   0.236800   0.069300 
-0.091800  -0.243500   -0.383000   -0.510200   -0.623300   -0.720100 
-0.799500  -0.863400   -0.908900   -0.936200   -0.945700   -0.936200 
-0.908900  -0.863400   -0.799500   -0.720100   -0.623300   -0.510200 
-0.383000  -0.125800   0.001200   0.133700   0.268200   0.400900 
0.527400  0.641400   0.740600   0.821200   0.880300   0.918800 
0.937500  0.937500   0.918800   0.880300   0.821200   0.740600 
0.641400  0.527400   0.400900   0.268200   0.133700   0.001200 
-0.125800  -0.243500   -0.351100   -0.445300   -0.527300   -0.594200 
-0.644500  -0.678700   -0.695900   -0.695900   -0.678700   -0.644500 
-0.594200  -0.527300   -0.445300   -0.351100   -0.243500   -0.125800 
0.099600  0.198600   0.295200   0.384300   0.463100   0.527400 
0.576300  0.612500   0.637000   0.651000   0.658000   0.660100 
0.658000  0.651000   0.637000   0.612500   0.576300   0.527400 
0.463100  0.384300   0.295200   0.198600   0.099600   0.001200 
-0.091800  -0.177500   -0.253600   -0.319300   -0.371800   -0.409600 
-0.432100  -0.440200   -0.432100   -0.409600   -0.371800   -0.319300 
-0.253600  -0.177500   -0.091800   0.001200   0.099600   0.259500 
0.313400  0.355400   0.384300   0.400900   0.409200   0.405900 
0.398200  0.390100   0.384200   0.380200   0.380200   0.384200 
0.390100  0.398200   0.405900   0.409200   0.400900   0.384300 
0.355400  0.313400   0.259500   0.198600   0.133700   0.069300 
0.008100  -0.047700   -0.095600   -0.132600   -0.158300   -0.172700 
-0.172700  -0.158300   -0.132600   -0.095600   -0.047700   0.008100 
0.069300  0.133700   0.198600   0.259500   0.319500   0.313400 
0.295200  0.268200   0.236800   0.203300   0.169800   0.140900 
0.118800  0.105300   0.101500   0.105300   0.118800   0.140900 
0.169800  0.203300   0.236800   0.268200   0.295200   0.313400 
0.319500  0.313400   0.295200   0.268200   0.236800   0.203300 
0.169800  0.140900   0.118800   0.105300   0.101500   0.105300 
0.118800  0.140900   0.169800   0.203300   0.236800   0.268200 
0.295200  0.313400   0.319500   0.259500   0.198600   0.133700 
0.069300  0.008100   -0.047700   -0.095600   -0.132600   -0.158300 
-0.172700  -0.172700   -0.158300   -0.132600   -0.095600   -0.047700 
0.008100  0.069300   0.133700   0.198600   0.259500   0.313400 
0.355400  0.384300   0.400900   0.409200   0.405900   0.398200 
0.390100  0.384200   0.380200   0.380200   0.384200   0.390100 
0.398200  0.405900   0.409200   0.400900   0.384300   0.355400 
0.313400  0.259500   0.099600   0.001200   -0.091800   -0.177500 
-0.253600  -0.319300   -0.371800   -0.409600   -0.432100   -0.440200 
-0.432100  -0.409600   -0.371800   -0.319300   -0.253600   -0.177500 
-0.091800  0.001200   0.099600   0.198600   0.295200   0.384300 
0.463100  0.527400   0.576300   0.612500   0.637000   0.651000 
0.658000  0.660100   0.658000   0.651000   0.637000   0.612500 
0.576300  0.527400   0.463100   0.384300   0.295200   0.198600 
0.099600  -0.125800   -0.243500   -0.351100   -0.445300   -0.527300 
-0.594200  -0.644500   -0.678700   -0.695900   -0.695900   -0.678700 
-0.644500  -0.594200   -0.527300   -0.445300   -0.351100   -0.243500 
-0.125800  0.001200   0.133700   0.268200   0.400900   0.527400 
0.641400  0.740600   0.821200   0.880300   0.918800   0.937500 
0.937500  0.918800   0.880300   0.821200   0.740600   0.641400 
0.527400  0.400900   0.268200   0.133700   0.001200   -0.125800 
-0.383000  -0.510200   -0.623300   -0.720100   -0.799500   -0.863400 
-0.908900  -0.936200   -0.945700   -0.936200   -0.908900   -0.863400 
-0.799500  -0.720100   -0.623300   -0.510200   -0.383000   -0.243500 
-0.091800  0.069300   0.236800   0.409200   0.576300   0.740600 
0.890900  1.023000   1.126200   1.191800   1.214700   1.191800 
1.126200  1.023000   0.890900   0.740600   0.576300   0.409200 
0.236800  0.069300   -0.091800   -0.243500   -0.383000   -0.656000 
-0.784000  -0.895300   -0.988600   -1.064300   -1.122000   -1.160400 
-1.179600  -1.179600   -1.160400   -1.122000   -1.064300   -0.988600 
-0.895300  -0.784000   -0.656000   -0.510200   -0.351100   -0.177500 
0.008100  0.203300   0.405900   0.612500   0.821200   1.023000 
1.212700  1.371100   1.468700   1.468700   1.371100   1.212700 
1.023000  0.821200   0.612500   0.405900   0.203300   0.008100 
-0.177500  -0.351100   -0.510200   -0.656000   -0.927600   -1.052800 
-1.159700  -1.247600   -1.316400   -1.367000   -1.396800   -1.406400 
-1.396800  -1.367000   -1.316400   -1.247600   -1.159700   -1.052800 
-0.927600  -0.784000   -0.623300   -0.445300   -0.253600   -0.047700 
0.169800  0.398200   0.637000   0.880300   1.126200   1.371100 
1.599000  1.735300   1.599000   1.371100   1.126200   0.880300 
0.637000  0.398200   0.169800   -0.047700   -0.253600   -0.445300 
-0.623300  -0.784000   -0.927600   -1.191400   -1.311200   -1.411900 
-1.492400  -1.553600   -1.594800   -1.615500   -1.615500   -1.594800 
-1.553600  -1.492400   -1.411900   -1.311200   -1.191400   -1.052800 
-0.895300  -0.720100   -0.527300   -0.319300   -0.095600   0.140900 
0.390100  0.651000   0.918800   1.191800   1.468700   1.735300 
1.735300  1.468700   1.191800   0.918800   0.651000   0.390100 
0.140900  -0.095600   -0.319300   -0.527300   -0.720100   -0.895300 
-1.052800  -1.191400   -1.443400   -1.536200   -1.595700   -1.720900 
-1.773300  -1.805400   -1.816100   -1.805400   -1.773300   -1.720900 
-1.595700  -1.536200   -1.443400   -1.311200   -1.159700   -0.988600 
-0.799500  -0.594200   -0.371800   -0.132600   0.118800   0.384200 
0.658000  0.937500   1.214700   1.468700   1.599000   1.468700 
1.214700  0.937500   0.658000   0.384200   0.118800   -0.132600 
-0.371800  -0.594200   -0.799500   -0.988600   -1.159700   -1.311200 
-1.443400  -1.401100   -1.363600   -1.414200   -1.529600   -1.673200 
-1.786700  -1.786700   -1.673200   -1.529600   -1.414200   -1.363600 
-1.401100  -1.536200   -1.411900   -1.247600   -1.064300   -0.863400 
-0.644500  -0.409600   -0.158300   0.105300   0.380200   0.660100 
0.937500  1.191800   1.371100   1.371100   1.191800   0.937500 
0.660100  0.380200   0.105300   -0.158300   -0.409600   -0.644500 
-0.863400  -1.064300   -1.247600   -1.411900   -1.536200   -1.401100 
-1.223200  -1.178400   -1.217800   -1.318800   -1.432800   -1.489800 
-1.432800  -1.318800   -1.217800   -1.178400   -1.223200   -1.363600 
-1.595700  -1.492400   -1.316400   -1.122000   -0.908900   -0.678700 
-0.432100  -0.172700   0.101500   0.380200   0.658000   0.918800 
1.126200  1.212700   1.126200   0.918800   0.658000   0.380200 
0.101500  -0.172700   -0.432100   -0.678700   -0.908900   -1.122000 
-1.316400  -1.492400   -1.595700   -1.363600   -1.223200   -1.032300 
-0.981000  -1.012400   -1.093800   -1.172900   -1.172900   -1.093800 
-1.012400  -0.981000   -1.032300   -1.178400   -1.414200   -1.720900 
-1.553600  -1.367000   -1.160400   -0.936200   -0.695900   -0.440200 
-0.172700  0.105300   0.384200   0.651000   0.880300   1.023000 
1.023000  0.880300   0.651000   0.384200   0.105300   -0.172700 
-0.440200  -0.695900   -0.936200   -1.160400   -1.367000   -1.553600 
-1.720900  -1.414200   -1.178400   -1.032300   -0.832700   -0.776900 
-0.797700  -0.858100   -0.895200   -0.858100   -0.797700   -0.776900 
-0.832700  -0.981000   -1.217800   -1.529600   -1.773300   -1.594800 
-1.396800  -1.179600   -0.945700   -0.695900   -0.432100   -0.158300 
0.118800  0.390100   0.637000   0.821200   0.890900   0.821200 
0.637000  0.390100   0.118800   -0.158300   -0.432100   -0.695900 
-0.945700  -1.179600   -1.396800   -1.594800   -1.773300   -1.529600 
-1.217800  -0.981000   -0.832700   -0.627600   -0.568400   -0.578900 
-0.617200  -0.617200   -0.578900   -0.568400   -0.627600   -0.776900 
-1.012400  -1.318800   -1.673200   -1.805400   -1.615500   -1.406400 
-1.179600  -0.936200   -0.678700   -0.409600   -0.132600   0.140900 
0.398200  0.612500   0.740600   0.740600   0.612500   0.398200 
0.140900  -0.132600   -0.409600   -0.678700   -0.936200   -1.179600 
-1.406400  -1.615500   -1.805400   -1.673200   -1.318800   -1.012400 
-0.776900  -0.627600   -0.422700   -0.360900   -0.362300   -0.377500 
-0.362300  -0.360900   -0.422700   -0.568400   -0.797700   -1.093800 
-1.432800  -1.786700   -1.816100   -1.615500   -1.396800   -1.160400 
-0.908900  -0.644500   -0.371800   -0.095600   0.169800   0.405900 
0.576300  0.641400   0.576300   0.405900   0.169800   -0.095600 
-0.371800  -0.644500   -0.908900   -1.160400   -1.396800   -1.615500 
-1.816100  -1.786700   -1.432800   -1.093800   -0.797700   -0.568400 
-0.422700  -0.222800   -0.162700   -0.157800   -0.157800   -0.162700 
-0.222800  -0.360900   -0.578900   -0.858100   -1.172900   -1.489800 
-1.786700  -1.805400   -1.594800   -1.367000   -1.122000   -0.863400 
-0.594200  -0.319300   -0.047700   0.203300   0.409200   0.527400 
0.527400  0.409200   0.203300   -0.047700   -0.319300   -0.594200 
-0.863400  -1.122000   -1.367000   -1.594800   -1.805400   -1.786700 
-1.489800  -1.172900   -0.858100   -0.578900   -0.360900   -0.222800 
-0.036000  0.017800   0.024700   0.017800   -0.036000   -0.162700 
-0.362300  -0.617200   -0.895200   -1.172900   -1.432800   -1.673200 
-1.773300  -1.553600   -1.316400   -1.064300   -0.799500   -0.527300 
-0.253600  0.008100   0.236800   0.400900   0.463100   0.400900 
0.236800  0.008100   -0.253600   -0.527300   -0.799500   -1.064300 
-1.316400  -1.553600   -1.773300   -1.673200   -1.432800   -1.172900 
-0.895200  -0.617200   -0.362300   -0.162700   -0.036000   0.127200 
0.167800  0.167800   0.127200   0.017800   -0.157800   -0.377500 
-0.617200  -0.858100   -1.093800   -1.318800   -1.529600   -1.720900 
-1.492400  -1.247600   -0.988600   -0.720100   -0.445300   -0.177500 
0.069300  0.268200   0.384300   0.384300   0.268200   0.069300 
-0.177500  -0.445300   -0.720100   -0.988600   -1.247600   -1.492400 
-1.720900  -1.529600   -1.318800   -1.093800   -0.858100   -0.617200 
-0.377500  -0.157800   0.017800   0.127200   0.255500   0.278400 
0.255500  0.167800   0.024700   -0.157800   -0.362300   -0.578900 
-0.797700  -1.012400   -1.217800   -1.414200   -1.595700   -1.411900 
-1.159700  -0.895300   -0.623300   -0.351100   -0.091800   0.133700 
0.295200  0.355400   0.295200   0.133700   -0.091800   -0.351100 
-0.623300  -0.895300   -1.159700   -1.411900   -1.595700   -1.414200 
-1.217800  -1.012400   -0.797700   -0.578900   -0.362300   -0.157800 
0.024700  0.167800   0.255500   0.334900   0.334900   0.278400 
0.167800  0.017800   -0.162700   -0.360900   -0.568400   -0.776900 
-0.981000  -1.178400   -1.363600   -1.536200   -1.311200   -1.052800 
-0.784000  -0.510200   -0.243500   0.001200   0.198600   0.313400 
0.313400  0.198600   0.001200   -0.243500   -0.510200   -0.784000 
-1.052800  -1.311200   -1.536200   -1.363600   -1.178400   -0.981000 
-0.776900  -0.568400   -0.360900   -0.162700   0.017800   0.167800 
0.278400  0.334900   0.363400   0.334900   0.255500   0.127200 
-0.036000  -0.222800   -0.422700   -0.627600   -0.832700   -1.032300 
-1.223200  -1.401100   -1.443400   -1.191400   -0.927600   -0.656000 
-0.383000  -0.125800   0.099600   0.259500   0.319500   0.259500 
0.099600  -0.125800   -0.383000   -0.656000   -0.927600   -1.191400 
-1.443400  -1.401100   -1.223200   -1.032300   -0.832700   -0.627600 
-0.422700  -0.222800   -0.036000   0.127200   0.255500   0.334900 
0.363400  0.365400   0.336800   0.257500   0.129200   -0.033900 
-0.220300  -0.421100   -0.625600   -0.831100   -1.030700   -1.221100 
-1.399100  -1.490400   -1.238000   -0.973400   -0.700800   -0.428500 
-0.168500  0.058000   0.218700   0.278900   0.218700   0.058000 
-0.168500  -0.428500   -0.700800   -0.973400   -1.238000   -1.490400 
-1.399100  -1.221100   -1.030700   -0.831100   -0.625600   -0.421100 
-0.220300  -0.033900   0.129200   0.257500   0.336800   0.365400 
0.336800  0.280300   0.169900   0.020200   -0.160900   -0.358800 
-0.566000  -0.775200   -0.979000   -1.175900   -1.361400   -1.533000 
-1.357800  -1.098900   -0.829100   -0.556000   -0.287500   -0.041000 
0.157600  0.272100   0.272100   0.157600   -0.041000   -0.287500 
-0.556000  -0.829100   -1.098900   -1.357800   -1.533000   -1.361400 
-1.175900  -0.979000   -0.775200   -0.566000   -0.358800   -0.160900 
0.020200  0.169900   0.280300   0.336800   0.336800   0.257500 
0.169900  0.026700   -0.155500   -0.359900   -0.576500   -0.795200 
-1.009700  -1.215700   -1.411100   -1.591400   -1.457600   -1.205900 
-0.941000  -0.668400   -0.395500   -0.135200   0.091700   0.254300 
0.314200  0.254300   0.091700   -0.135200   -0.395500   -0.668400 
-0.941000  -1.205900   -1.457600   -1.591400   -1.411100   -1.215700 
-1.009700  -0.795200   -0.576500   -0.359900   -0.155500   0.026700 
0.169900  0.257500   0.280300   0.257500   0.129200   0.020200 
-0.155500  -0.375000   -0.614500   -0.855300   -1.091100   -1.315700 
-1.525800  -1.712700   -1.538000   -1.293400   -1.034500   -0.764900 
-0.491100  -0.221800   0.026200   0.227000   0.343600   0.343600 
0.227000  0.026200   -0.221800   -0.491100   -0.764900   -1.034500 
-1.293400  -1.538000   -1.712700   -1.525800   -1.315700   -1.091100 
-0.855300  -0.614500   -0.375000   -0.155500   0.020200   0.129200 
0.169900  0.169900   0.129200   -0.033900   -0.160900   -0.359900 
-0.614500  -0.892500   -1.169600   -1.429000   -1.668000   -1.810300 
-1.599100  -1.362600   -1.110400   -0.845900   -0.572700   -0.297600 
-0.036200  0.194600   0.360700   0.421600   0.360700   0.194600 
-0.036200  -0.297600   -0.572700   -0.845900   -1.110400   -1.362600 
-1.599100  -1.810300   -1.668000   -1.429000   -1.169600   -0.892500 
-0.614500  -0.359900   -0.160900   -0.033900   0.020200   0.026700 
0.020200  -0.033900   -0.220300   -0.358800   -0.576500   -0.855300 
-1.169600  -1.485500   -1.779400   -1.846200   -1.639900   -1.412200 
-1.167500  -0.908900   -0.638900   -0.363900   -0.091800   0.159700 
0.365400  0.486600   0.486600   0.365400   0.159700   -0.091800 
-0.363900  -0.638900   -0.908900   -1.167500   -1.412200   -1.639900 
-1.846200  -1.779400   -1.485500   -1.169600   -0.855300   -0.576500 
-0.358800  -0.220300   -0.160900   -0.155500   -0.155500   -0.160900 
-0.220300  -0.421100   -0.566000   -0.795200   -1.091100   -1.429000 
-1.779400  -1.857700   -1.660600   -1.442400   -1.206300   -0.954600 
-0.690200  -0.416300   -0.139500   0.126700   0.363000   0.536000 
0.601900  0.536000   0.363000   0.126700   -0.139500   -0.416300 
-0.690200  -0.954600   -1.206300   -1.442400   -1.660600   -1.857700 
-1.779400  -1.429000   -1.091100   -0.795200   -0.566000   -0.421100 
-0.358800  -0.359900   -0.375000   -0.359900   -0.358800   -0.421100 
-0.625600  -0.775200   -1.009700   -1.315700   -1.668000   -1.846200 
-1.660600  -1.452500   -1.225900   -0.982000   -0.724200   -0.453800 
-0.177700  0.097200   0.356000   0.570300   0.699500   0.699500 
0.570300  0.356000   0.097200   -0.177700   -0.453800   -0.724200 
-0.982000  -1.225900   -1.452500   -1.660600   -1.846200   -1.668000 
-1.315700  -1.009700   -0.775200   -0.625600   -0.566000   -0.576500 
-0.614500  -0.614500   -0.576500   -0.566000   -0.625600   -0.831100 
-0.979000  -1.215700   -1.525800   -1.810300   -1.639900   -1.442400 
-1.225900  -0.991300   -0.741400   -0.477700   -0.203300   0.075500 
0.347100  0.593200   0.779100   0.850900   0.779100   0.593200 
0.347100  0.075500   -0.203300   -0.477700   -0.741400   -0.991300 
-1.225900  -1.442400   -1.639900   -1.810300   -1.525800   -1.215700 
-0.979000  -0.831100   -0.775200   -0.795200   -0.855300   -0.892500 
-0.855300  -0.795200   -0.775200   -0.831100   -1.030700   -1.175900 
-1.411100  -1.712700   -1.599100   -1.412200   -1.206300   -0.982000 
-0.741400  -0.485700   -0.216400   0.060800   0.339800   0.606700 
0.838300  0.981300   0.981300   0.838300   0.606700   0.339800 
0.060800  -0.216400   -0.485700   -0.741400   -0.982000   -1.206300 
-1.412200  -1.599100   -1.712700   -1.411100   -1.175900   -1.030700 
-0.979000  -1.009700   -1.091100   -1.169600   -1.169600   -1.091100 
-1.009700  -0.979000   -1.030700   -1.221100   -1.361400   -1.591400 
-1.538000  -1.362600   -1.167500   -0.954600   -0.724200   -0.477700 
-0.216400  0.056100   0.335500   0.614200   0.876300   1.083900 
1.168800  1.083900   0.876300   0.614200   0.335500   0.056100 
-0.216400  -0.477700   -0.724200   -0.954600   -1.167500   -1.362600 
-1.538000  -1.591400   -1.361400   -1.221100   -1.175900   -1.215700 
-1.315700  -1.429000   -1.485500   -1.429000   -1.315700   -1.215700 
-1.175900  -1.221100   -1.399100   -1.533000   -1.457600   -1.293400 
-1.110400  -0.908900   -0.690200   -0.453800   -0.203300   0.060800 
0.335500  0.616400   0.894700   1.149400   1.327400   1.327400 
1.149400  0.894700   0.616400   0.335500   0.060800   -0.203300 
-0.453800  -0.690200   -0.908900   -1.110400   -1.293400   -1.457600 
-1.533000  -1.399100   -1.361400   -1.411100   -1.525800   -1.668000 
-1.779400  -1.779400   -1.668000   -1.525800   -1.411100   -1.361400 
-1.399100  -1.490400   -1.357800   -1.205900   -1.034500   -0.845900 
-0.638900  -0.416300   -0.177700   0.075500   0.339800   0.614200 
0.894700  1.172300   1.424500   1.556700   1.424500   1.172300 
0.894700  0.614200   0.339800   0.075500   -0.177700   -0.416300 
-0.638900  -0.845900   -1.034500   -1.205900   -1.357800   -1.490400 
-1.533000  -1.591400   -1.712700   -1.810300   -1.846200   -1.857700 
-1.846200  -1.810300   -1.712700   -1.591400   -1.533000   -1.490400 
-1.238000  -1.098900   -0.941000   -0.764900   -0.572700   -0.363900 
-0.139500  0.097200   0.347100   0.606700   0.876300   1.149400 
1.424500  1.691800   1.691800   1.424500   1.149400   0.876300 
0.606700  0.347100   0.097200   -0.139500   -0.363900   -0.572700 
-0.764900  -0.941000   -1.098900   -1.238000   -1.357800   -1.457600 
-1.538000  -1.599100   -1.639900   -1.660600   -1.660600   -1.639900 
-1.599100  -1.538000   -1.457600   -1.357800   -1.238000   -0.973400 
-0.829100  -0.668400   -0.491100   -0.297600   -0.091800   0.126700 
0.356000  0.593200   0.838300   1.083900   1.327400   1.556700 
1.691800  1.556700   1.327400   1.083900   0.838300   0.593200 
0.356000  0.126700   -0.091800   -0.297600   -0.491100   -0.668400 
-0.829100  -0.973400   -1.098900   -1.205900   -1.293400   -1.362600 
-1.412200  -1.442400   -1.452500   -1.442400   -1.412200   -1.362600 
-1.293400  -1.205900   -1.098900   -0.973400   -0.700800   -0.556000 
-0.395500  -0.221800   -0.036200   0.159700   0.363000   0.570300 
0.779100  0.981300   1.168800   1.327400   1.424500   1.424500 
1.327400  1.168800   0.981300   0.779100   0.570300   0.363000 
0.159700  -0.036200   -0.221800   -0.395500   -0.556000   -0.700800 
-0.829100  -0.941000   -1.034500   -1.110400   -1.167500   -1.206300 
-1.225900  -1.225900   -1.206300   -1.167500   -1.110400   -1.034500 
-0.941000  -0.829100   -0.700800   -0.428500   -0.287500   -0.135200 
0.026200  0.194600   0.365400   0.536000   0.699500   0.850900 
0.981300  1.083900   1.149400   1.172300   1.149400   1.083900 
0.981300  0.850900   0.699500   0.536000   0.365400   0.194600 
0.026200  -0.135200   -0.287500   -0.428500   -0.556000   -0.668400 
-0.764900  -0.845900   -0.908900   -0.954600   -0.982000   -0.991300 
-0.982000  -0.954600   -0.908900   -0.845900   -0.764900   -0.668400 
-0.556000  -0.428500   -0.168500   -0.041000   0.091700   0.227000 
0.360700  0.486600   0.601900   0.699500   0.779100   0.838300 
0.876300  0.894700   0.894700   0.876300   0.838300   0.779100 
0.699500  0.601900   0.486600   0.360700   0.227000   0.091700 
-0.041000  -0.168500   -0.287500   -0.395500   -0.491100   -0.572700 
-0.638900  -0.690200   -0.724200   -0.741400   -0.741400   -0.724200 
-0.690200  -0.638900   -0.572700   -0.491100   -0.395500   -0.287500 
-0.168500  0.058000   0.157600   0.254300   0.343600   0.421600 
0.486600  0.536000   0.570300   0.593200   0.606700   0.614200 
0.616400  0.614200   0.606700   0.593200   0.570300   0.536000 
0.486600  0.421600   0.343600   0.254300   0.157600   0.058000 
-0.041000  -0.135200   -0.221800   -0.297600   -0.363900   -0.416300 
-0.453800  -0.477700   -0.485700   -0.477700   -0.453800   -0.416300 
-0.363900  -0.297600   -0.221800   -0.135200   -0.041000   0.058000 
0.218700  0.272100   0.314200   0.343600   0.360700   0.365400 
0.363000  0.356000   0.347100   0.339800   0.335500   0.335500 
0.339800  0.347100   0.356000   0.363000   0.365400   0.360700 
0.343600  0.314200   0.272100   0.218700   0.157600   0.091700 
0.026200  -0.036200   -0.091800   -0.139500   -0.177700   -0.203300 
-0.216400  -0.216400   -0.203300   -0.177700   -0.139500   -0.091800 
-0.036200  0.026200   0.091700   0.157600   0.218700   0.278900 
0.272100  0.254300   0.227000   0.194600   0.159700   0.126700 
0.097200  0.075500   0.060800   0.056100   0.060800   0.075500 
0.097200  0.126700   0.159700   0.194600   0.227000   0.254300 
0.272100  0.278900   0.272100   0.254300   0.227000   0.194600 
0.159700  0.126700   0.097200   0.075500   0.060800   0.056100 
0.060800  0.075500   0.097200   0.126700   0.159700   0.194600 
0.227000  0.254300   0.272100   0.278900   0.218700   0.157600 
0.091700  0.026200   -0.036200   -0.091800   -0.139500   -0.177700 
-0.203300  -0.216400   -0.216400   -0.203300   -0.177700   -0.139500 
-0.091800  -0.036200   0.026200   0.091700   0.157600   0.218700 
0.272100  0.314200   0.343600   0.360700   0.365400   0.363000 
0.356000  0.347100   0.339800   0.335500   0.335500   0.339800 
0.347100  0.356000   0.363000   0.365400   0.360700   0.343600 
0.314200  0.272100   0.218700   0.058000   -0.041000   -0.135200 
-0.221800  -0.297600   -0.363900   -0.416300   -0.453800   -0.477700 
-0.485700  -0.477700   -0.453800   -0.416300   -0.363900   -0.297600 
-0.221800  -0.135200   -0.041000   0.058000   0.157600   0.254300 
0.343600  0.421600   0.486600   0.536000   0.570300   0.593200 
0.606700  0.614200   0.616400   0.614200   0.606700   0.593200 
0.570300  0.536000   0.486600   0.421600   0.343600   0.254300 
0.157600  0.058000   -0.168500   -0.287500   -0.395500   -0.491100 
-0.572700  -0.638900   -0.690200   -0.724200   -0.741400   -0.741400 