BEGIN_BLOCK_DATAGRID_3D 
bxsf2xsf_created_by_RC_Xiao 
BEGIN_DATAGRID_3D 
41 41  41  
0.000000  0.000000  0.000000 
1.000000  0.577350  0.000000 
0.000000  1.154701  0.000000 
0.000000  0.000000  0.875604 
1.722700  1.731900   1.759900   1.807700   1.875600   1.963800 
2.071200  2.197700   2.342300   2.503200   2.679500   2.869400 
3.068600  3.273300   3.476000   3.665300   3.827500   3.651800 
3.342300  3.128800   3.052300   3.128800   3.342300   3.651800 
3.827500  3.665300   3.476000   3.273300   3.068600   2.869400 
2.679500  2.503200   2.342300   2.197700   2.071200   1.963800 
1.875600  1.807700   1.759900   1.731900   1.722700   1.731900 
1.750600  1.788700   1.847200   1.925900   2.024600   2.142400 
2.279000  2.432800   2.602500   2.787100   2.983800   3.188700 
3.396700  3.599000   3.783500   3.833400   3.484400   3.216900 
3.069400  3.069400   3.216900   3.484400   3.833400   3.783500 
3.599000  3.396700   3.188700   2.983800   2.787100   2.602500 
2.432800  2.279000   2.142400   2.024600   1.925900   1.847200 
1.788700  1.750600   1.731900   1.731900   1.759900   1.788700 
1.838100  1.908400   1.999100   2.109700   2.239100   2.386600 
2.551300  2.731400   2.926000   3.132200   3.346000   3.562500 
3.772400  3.962300   3.643900   3.331000   3.117800   3.042400 
3.117800  3.331000   3.643900   3.962300   3.772400   3.562500 
3.346000  3.132200   2.926000   2.731400   2.551300   2.386600 
2.239100  2.109700   1.999100   1.908400   1.838100   1.788700 
1.759900  1.750600   1.759900   1.807700   1.847200   1.908400 
1.991200  2.094800   2.217800   2.359300   2.518800   2.695200 
2.887000  3.092900   3.310200   3.536300   3.765300   3.989400 
3.812200  3.464200   3.195800   3.045000   3.045000   3.195800 
3.464200  3.812200   3.989400   3.765300   3.536300   3.310200 
3.092900  2.887000   2.695200   2.518800   2.359300   2.217800 
2.094800  1.991200   1.908400   1.847200   1.807700   1.788700 
1.788700  1.807700   1.875600   1.925900   1.999100   2.094800 
2.211200  2.346700   2.500900   2.672700   2.861200   3.064500 
3.282400  3.511900   3.750700   3.993900   3.979600   3.608000 
3.297000  3.081100   3.003900   3.081100   3.297000   3.608000 
3.979600  3.993900   3.750700   3.511900   3.282400   3.064500 
2.861200  2.672700   2.500900   2.346700   2.211200   2.094800 
1.999100  1.925900   1.875600   1.847200   1.838100   1.847200 
1.875600  1.963800   2.024600   2.109700   2.217800   2.346700 
2.495400  2.661900   2.845800   3.045900   3.260700   3.489900 
3.730800  3.981100   4.139000   3.751700   3.409500   3.143400 
2.991500  2.991500   3.143400   3.409500   3.751700   4.139000 
3.981100  3.730800   3.489900   3.260700   3.045900   2.845800 
2.661900  2.495400   2.346700   2.217800   2.109700   2.024600 
1.963800  1.925900   1.908400   1.908400   1.925900   1.963800 
2.071200  2.142400   2.239100   2.359300   2.500900   2.661900 
2.840600  3.036000   3.247000   3.472700   3.712000   3.962300 
4.222600  3.887100   3.525200   3.220700   3.004100   2.925500 
3.004100  3.220700   3.525200   3.887100   4.222600   3.962300 
3.712000  3.472700   3.247000   3.036000   2.840600   2.661900 
2.500900  2.359300   2.239100   2.142400   2.071200   2.024600 
1.999100  1.991200   1.999100   2.024600   2.071200   2.197700 
2.279000  2.386600   2.518800   2.672700   2.845800   3.036000 
3.242400  3.463800   3.698900   3.946200   4.204200   4.002400 
3.631300  3.300900   3.037200   2.883800   2.883800   3.037200 
3.300900  3.631300   4.002400   4.204200   3.946200   3.698900 
3.463800  3.242400   3.036000   2.845800   2.672700   2.518800 
2.386600  2.279000   2.197700   2.142400   2.109700   2.094800 
2.094800  2.109700   2.142400   2.197700   2.342300   2.432800 
2.551300  2.695200   2.861200   3.045900   3.247000   3.463800 
3.694100  3.936800   4.191200   4.085000   3.718100   3.375900 
3.078400  2.862100   2.780100   2.862100   3.078400   3.375900 
3.718100  4.085000   4.191200   3.936800   3.694100   3.463800 
3.247000  3.045900   2.861200   2.695200   2.551300   2.432800 
2.342300  2.279000   2.239100   2.217800   2.211200   2.217800 
2.239100  2.279000   2.342300   2.503200   2.602500   2.731400 
2.887000  3.064500   3.260700   3.472700   3.698900   3.936800 
4.186200  4.130200   3.776100   3.433100   3.117900   2.855200 
2.695000  2.695000   2.855200   3.117900   3.433100   3.776100 
4.130200  4.186200   3.936800   3.698900   3.472700   3.260700 
3.064500  2.887000   2.731400   2.602500   2.503200   2.432800 
2.386600  2.359300   2.346700   2.346700   2.359300   2.386600 
2.432800  2.503200   2.679500   2.787100   2.926000   3.092900 
3.282400  3.489900   3.712000   3.946200   4.191200   4.130200 
3.796400  3.465500   3.145600   2.856200   2.630500   2.539100 
2.630500  2.856200   3.145600   3.465500   3.796400   4.130200 
4.191200  3.946200   3.712000   3.489900   3.282400   3.092900 
2.926000  2.787100   2.679500   2.602500   2.551300   2.518800 
2.500900  2.495400   2.500900   2.518800   2.551300   2.602500 
2.679500  2.869400   2.983800   3.132200   3.310200   3.511900 
3.730800  3.962300   4.204200   4.085000   3.776100   3.465500 
3.156500  2.858300   2.589500   2.404900   2.404900   2.589500 
2.858300  3.156500   3.465500   3.776100   4.085000   4.204200 
3.962300  3.730800   3.511900   3.310200   3.132200   2.983800 
2.869400  2.787100   2.731400   2.695200   2.672700   2.661900 
2.661900  2.672700   2.695200   2.731400   2.787100   2.869400 
3.068600  3.188700   3.346000   3.536300   3.750700   3.981100 
4.222600  4.002400   3.718100   3.433100   3.145600   2.858300 
2.574600  2.318400   2.186000   2.318400   2.574600   2.858300 
3.145600  3.433100   3.718100   4.002400   4.222600   3.981100 
3.750700  3.536300   3.346000   3.188700   3.068600   2.983800 
2.926000  2.887000   2.861200   2.845800   2.840600   2.845800 
2.861200  2.887000   2.926000   2.983800   3.068600   3.273300 
3.396700  3.562500   3.765300   3.993900   4.139000   3.887100 
3.631300  3.375900   3.117900   2.856200   2.589500   2.318400 
2.054000  2.054000   2.318400   2.589500   2.856200   3.117900 
3.375900  3.631300   3.887100   4.139000   3.993900   3.765300 
3.562500  3.396700   3.273300   3.188700   3.132200   3.092900 
3.064500  3.045900   3.036000   3.036000   3.045900   3.064500 
3.092900  3.132200   3.188700   3.273300   3.476000   3.599000 
3.772400  3.989400   3.979600   3.751700   3.525200   3.300900 
3.078400  2.855200   2.630500   2.404900   2.186000   2.054000 
2.186000  2.404900   2.630500   2.855200   3.078400   3.300900 
3.525200  3.751700   3.979600   3.989400   3.772400   3.599000 
3.476000  3.396700   3.346000   3.310200   3.282400   3.260700 
3.247000  3.242400   3.247000   3.260700   3.282400   3.310200 
3.346000  3.396700   3.476000   3.665300   3.783500   3.962300 
3.812200  3.608000   3.409500   3.220700   3.037200   2.862100 
2.695000  2.539100   2.404900   2.318400   2.318400   2.404900 
2.539100  2.695000   2.862100   3.037200   3.220700   3.409500 
3.608000  3.812200   3.962300   3.783500   3.665300   3.599000 
3.562500  3.536300   3.511900   3.489900   3.472700   3.463800 
3.463800  3.472700   3.489900   3.511900   3.536300   3.562500 
3.599000  3.665300   3.827500   3.833400   3.643900   3.464200 
3.297000  3.143400   3.004100   2.883800   2.780100   2.695000 
2.630500  2.589500   2.574600   2.589500   2.630500   2.695000 
2.780100  2.883800   3.004100   3.143400   3.297000   3.464200 
3.643900  3.833400   3.827500   3.783500   3.772400   3.765300 
3.750700  3.730800   3.712000   3.698900   3.694100   3.698900 
3.712000  3.730800   3.750700   3.765300   3.772400   3.783500 
3.827500  3.651800   3.484400   3.331000   3.195800   3.081100 
2.991500  2.925500   2.883800   2.862100   2.855200   2.856200 
2.858300  2.858300   2.856200   2.855200   2.862100   2.883800 
2.925500  2.991500   3.081100   3.195800   3.331000   3.484400 
3.651800  3.833400   3.962300   3.989400   3.993900   3.981100 
3.962300  3.946200   3.936800   3.936800   3.946200   3.962300 
3.981100  3.993900   3.989400   3.962300   3.833400   3.651800 
3.342300  3.216900   3.117800   3.045000   3.003900   2.991500 
3.004100  3.037200   3.078400   3.117900   3.145600   3.156500 
3.145600  3.117900   3.078400   3.037200   3.004100   2.991500 
3.003900  3.045000   3.117800   3.216900   3.342300   3.484400 
3.643900  3.812200   3.979600   4.139000   4.222600   4.204200 
4.191200  4.186200   4.191200   4.204200   4.222600   4.139000 
3.979600  3.812200   3.643900   3.484400   3.342300   3.128800 
3.069400  3.042400   3.045000   3.081100   3.143400   3.220700 
3.300900  3.375900   3.433100   3.465500   3.465500   3.433100 
3.375900  3.300900   3.220700   3.143400   3.081100   3.045000 
3.042400  3.069400   3.128800   3.216900   3.331000   3.464200 
3.608000  3.751700   3.887100   4.002400   4.085000   4.130200 
4.130200  4.085000   4.002400   3.887100   3.751700   3.608000 
3.464200  3.331000   3.216900   3.128800   3.052300   3.069400 
3.117800  3.195800   3.297000   3.409500   3.525200   3.631300 
3.718100  3.776100   3.796400   3.776100   3.718100   3.631300 
3.525200  3.409500   3.297000   3.195800   3.117800   3.069400 
3.052300  3.069400   3.117800   3.195800   3.297000   3.409500 
3.525200  3.631300   3.718100   3.776100   3.796400   3.776100 
3.718100  3.631300   3.525200   3.409500   3.297000   3.195800 
3.117800  3.069400   3.052300   3.128800   3.216900   3.331000 
3.464200  3.608000   3.751700   3.887100   4.002400   4.085000 
4.130200  4.130200   4.085000   4.002400   3.887100   3.751700 
3.608000  3.464200   3.331000   3.216900   3.128800   3.069400 
3.042400  3.045000   3.081100   3.143400   3.220700   3.300900 
3.375900  3.433100   3.465500   3.465500   3.433100   3.375900 
3.300900  3.220700   3.143400   3.081100   3.045000   3.042400 
3.069400  3.128800   3.342300   3.484400   3.643900   3.812200 
3.979600  4.139000   4.222600   4.204200   4.191200   4.186200 
4.191200  4.204200   4.222600   4.139000   3.979600   3.812200 
3.643900  3.484400   3.342300   3.216900   3.117800   3.045000 
3.003900  2.991500   3.004100   3.037200   3.078400   3.117900 
3.145600  3.156500   3.145600   3.117900   3.078400   3.037200 
3.004100  2.991500   3.003900   3.045000   3.117800   3.216900 
3.342300  3.651800   3.833400   3.962300   3.989400   3.993900 
3.981100  3.962300   3.946200   3.936800   3.936800   3.946200 
3.962300  3.981100   3.993900   3.989400   3.962300   3.833400 
3.651800  3.484400   3.331000   3.195800   3.081100   2.991500 
2.925500  2.883800   2.862100   2.855200   2.856200   2.858300 
2.858300  2.856200   2.855200   2.862100   2.883800   2.925500 
2.991500  3.081100   3.195800   3.331000   3.484400   3.651800 
3.827500  3.783500   3.772400   3.765300   3.750700   3.730800 
3.712000  3.698900   3.694100   3.698900   3.712000   3.730800 
3.750700  3.765300   3.772400   3.783500   3.827500   3.833400 
3.643900  3.464200   3.297000   3.143400   3.004100   2.883800 
2.780100  2.695000   2.630500   2.589500   2.574600   2.589500 
2.630500  2.695000   2.780100   2.883800   3.004100   3.143400 
3.297000  3.464200   3.643900   3.833400   3.827500   3.665300 
3.599000  3.562500   3.536300   3.511900   3.489900   3.472700 
3.463800  3.463800   3.472700   3.489900   3.511900   3.536300 
3.562500  3.599000   3.665300   3.783500   3.962300   3.812200 
3.608000  3.409500   3.220700   3.037200   2.862100   2.695000 
2.539100  2.404900   2.318400   2.318400   2.404900   2.539100 
2.695000  2.862100   3.037200   3.220700   3.409500   3.608000 
3.812200  3.962300   3.783500   3.665300   3.476000   3.396700 
3.346000  3.310200   3.282400   3.260700   3.247000   3.242400 
3.247000  3.260700   3.282400   3.310200   3.346000   3.396700 
3.476000  3.599000   3.772400   3.989400   3.979600   3.751700 
3.525200  3.300900   3.078400   2.855200   2.630500   2.404900 
2.186000  2.054000   2.186000   2.404900   2.630500   2.855200 
3.078400  3.300900   3.525200   3.751700   3.979600   3.989400 
3.772400  3.599000   3.476000   3.273300   3.188700   3.132200 
3.092900  3.064500   3.045900   3.036000   3.036000   3.045900 
3.064500  3.092900   3.132200   3.188700   3.273300   3.396700 
3.562500  3.765300   3.993900   4.139000   3.887100   3.631300 
3.375900  3.117900   2.856200   2.589500   2.318400   2.054000 
2.054000  2.318400   2.589500   2.856200   3.117900   3.375900 
3.631300  3.887100   4.139000   3.993900   3.765300   3.562500 
3.396700  3.273300   3.068600   2.983800   2.926000   2.887000 
2.861200  2.845800   2.840600   2.845800   2.861200   2.887000 
2.926000  2.983800   3.068600   3.188700   3.346000   3.536300 
3.750700  3.981100   4.222600   4.002400   3.718100   3.433100 
3.145600  2.858300   2.574600   2.318400   2.186000   2.318400 
2.574600  2.858300   3.145600   3.433100   3.718100   4.002400 
4.222600  3.981100   3.750700   3.536300   3.346000   3.188700 
3.068600  2.869400   2.787100   2.731400   2.695200   2.672700 
2.661900  2.661900   2.672700   2.695200   2.731400   2.787100 
2.869400  2.983800   3.132200   3.310200   3.511900   3.730800 
3.962300  4.204200   4.085000   3.776100   3.465500   3.156500 
2.858300  2.589500   2.404900   2.404900   2.589500   2.858300 
3.156500  3.465500   3.776100   4.085000   4.204200   3.962300 
3.730800  3.511900   3.310200   3.132200   2.983800   2.869400 
2.679500  2.602500   2.551300   2.518800   2.500900   2.495400 
2.500900  2.518800   2.551300   2.602500   2.679500   2.787100 
2.926000  3.092900   3.282400   3.489900   3.712000   3.946200 
4.191200  4.130200   3.796400   3.465500   3.145600   2.856200 
2.630500  2.539100   2.630500   2.856200   3.145600   3.465500 
3.796400  4.130200   4.191200   3.946200   3.712000   3.489900 
3.282400  3.092900   2.926000   2.787100   2.679500   2.503200 
2.432800  2.386600   2.359300   2.346700   2.346700   2.359300 
2.386600  2.432800   2.503200   2.602500   2.731400   2.887000 
3.064500  3.260700   3.472700   3.698900   3.936800   4.186200 
4.130200  3.776100   3.433100   3.117900   2.855200   2.695000 
2.695000  2.855200   3.117900   3.433100   3.776100   4.130200 
4.186200  3.936800   3.698900   3.472700   3.260700   3.064500 
2.887000  2.731400   2.602500   2.503200   2.342300   2.279000 
2.239100  2.217800   2.211200   2.217800   2.239100   2.279000 
2.342300  2.432800   2.551300   2.695200   2.861200   3.045900 
3.247000  3.463800   3.694100   3.936800   4.191200   4.085000 
3.718100  3.375900   3.078400   2.862100   2.780100   2.862100 
3.078400  3.375900   3.718100   4.085000   4.191200   3.936800 
3.694100  3.463800   3.247000   3.045900   2.861200   2.695200 
2.551300  2.432800   2.342300   2.197700   2.142400   2.109700 
2.094800  2.094800   2.109700   2.142400   2.197700   2.279000 
2.386600  2.518800   2.672700   2.845800   3.036000   3.242400 
3.463800  3.698900   3.946200   4.204200   4.002400   3.631300 
3.300900  3.037200   2.883800   2.883800   3.037200   3.300900 
3.631300  4.002400   4.204200   3.946200   3.698900   3.463800 
3.242400  3.036000   2.845800   2.672700   2.518800   2.386600 
2.279000  2.197700   2.071200   2.024600   1.999100   1.991200 
1.999100  2.024600   2.071200   2.142400   2.239100   2.359300 
2.500900  2.661900   2.840600   3.036000   3.247000   3.472700 
3.712000  3.962300   4.222600   3.887100   3.525200   3.220700 
3.004100  2.925500   3.004100   3.220700   3.525200   3.887100 
4.222600  3.962300   3.712000   3.472700   3.247000   3.036000 
2.840600  2.661900   2.500900   2.359300   2.239100   2.142400 
2.071200  1.963800   1.925900   1.908400   1.908400   1.925900 
1.963800  2.024600   2.109700   2.217800   2.346700   2.495400 
2.661900  2.845800   3.045900   3.260700   3.489900   3.730800 
3.981100  4.139000   3.751700   3.409500   3.143400   2.991500 
2.991500  3.143400   3.409500   3.751700   4.139000   3.981100 
3.730800  3.489900   3.260700   3.045900   2.845800   2.661900 
2.495400  2.346700   2.217800   2.109700   2.024600   1.963800 
1.875600  1.847200   1.838100   1.847200   1.875600   1.925900 
1.999100  2.094800   2.211200   2.346700   2.500900   2.672700 
2.861200  3.064500   3.282400   3.511900   3.750700   3.993900 
3.979600  3.608000   3.297000   3.081100   3.003900   3.081100 
3.297000  3.608000   3.979600   3.993900   3.750700   3.511900 
3.282400  3.064500   2.861200   2.672700   2.500900   2.346700 
2.211200  2.094800   1.999100   1.925900   1.875600   1.807700 
1.788700  1.788700   1.807700   1.847200   1.908400   1.991200 
2.094800  2.217800   2.359300   2.518800   2.695200   2.887000 
3.092900  3.310200   3.536300   3.765300   3.989400   3.812200 
3.464200  3.195800   3.045000   3.045000   3.195800   3.464200 
3.812200  3.989400   3.765300   3.536300   3.310200   3.092900 
2.887000  2.695200   2.518800   2.359300   2.217800   2.094800 
1.991200  1.908400   1.847200   1.807700   1.759900   1.750600 
1.759900  1.788700   1.838100   1.908400   1.999100   2.109700 
2.239100  2.386600   2.551300   2.731400   2.926000   3.132200 
3.346000  3.562500   3.772400   3.962300   3.643900   3.331000 
3.117800  3.042400   3.117800   3.331000   3.643900   3.962300 
3.772400  3.562500   3.346000   3.132200   2.926000   2.731400 
2.551300  2.386600   2.239100   2.109700   1.999100   1.908400 
1.838100  1.788700   1.759900   1.731900   1.731900   1.750600 
1.788700  1.847200   1.925900   2.024600   2.142400   2.279000 
2.432800  2.602500   2.787100   2.983800   3.188700   3.396700 
3.599000  3.783500   3.833400   3.484400   3.216900   3.069400 
3.069400  3.216900   3.484400   3.833400   3.783500   3.599000 
3.396700  3.188700   2.983800   2.787100   2.602500   2.432800 
2.279000  2.142400   2.024600   1.925900   1.847200   1.788700 
1.750600  1.731900   1.722700   1.731900   1.759900   1.807700 
1.875600  1.963800   2.071200   2.197700   2.342300   2.503200 
2.679500  2.869400   3.068600   3.273300   3.476000   3.665300 
3.827500  3.651800   3.342300   3.128800   3.052300   3.128800 
3.342300  3.651800   3.827500   3.665300   3.476000   3.273300 
3.068600  2.869400   2.679500   2.503200   2.342300   2.197700 
2.071200  1.963800   1.875600   1.807700   1.759900   1.731900 
1.722700  1.784400   1.793600   1.821500   1.869000   1.936800 
2.024600  2.131700   2.257800   2.401700   2.562100   2.737700 
2.926200  3.123300   3.324700   3.521000   3.696300   3.790100 
3.558500  3.261700   3.051600   2.973700   3.051600   3.261700 
3.558500  3.790100   3.696300   3.521000   3.324700   3.123300 
2.926200  2.737700   2.562100   2.401700   2.257800   2.131700 
2.024600  1.936800   1.869000   1.821500   1.793600   1.784400 
1.793600  1.812100   1.850100   1.908300   1.986900   2.085300 
2.202800  2.338700   2.491900   2.661100   2.844800   3.039800 
3.242200  3.445900   3.639600   3.795700   3.718100   3.403500 
3.141800  2.993600   2.993600   3.141800   3.403500   3.718100 
3.795700  3.639600   3.445900   3.242200   3.039800   2.844800 
2.661100  2.491900   2.338700   2.202800   2.085300   1.986900 
1.908300  1.850100   1.812100   1.793600   1.793600   1.821500 
1.850100  1.899300   1.969400   2.059800   2.170000   2.299000 
2.446100  2.610300   2.789700   2.983200   3.187700   3.398800 
3.609900  3.805300   3.872100   3.562500   3.257700   3.046900 
2.969800  3.046900   3.257700   3.562500   3.872100   3.805300 
3.609900  3.398800   3.187700   2.983200   2.789700   2.610300 
2.446100  2.299000   2.170000   2.059800   1.969400   1.899300 
1.850100  1.821500   1.812100   1.821500   1.869000   1.908300 
1.969400  2.051900   2.155100   2.277700   2.419000   2.578100 
2.753900  2.944900   3.149900   3.365600   3.588400   3.810100 
3.985700  3.732700   3.394100   3.128600   2.979700   2.979700 
3.128600  3.394100   3.732700   3.985700   3.810100   3.588400 
3.365600  3.149900   2.944900   2.753900   2.578100   2.419000 
2.277700  2.155100   2.051900   1.969400   1.908300   1.869000 
1.850100  1.850100   1.869000   1.936800   1.986900   2.059800 
2.155100  2.271000   2.406500   2.560300   2.731700   2.919700 
3.122400  3.339200   3.567000   3.801800   4.029100   3.905300 
3.541000  3.233400   3.019500   2.942200   3.019500   3.233400 
3.541000  3.905300   4.029100   3.801800   3.567000   3.339200 
3.122400  2.919700   2.731700   2.560300   2.406500   2.271000 
2.155100  2.059800   1.986900   1.936800   1.908300   1.899300 
1.908300  1.936800   2.024600   2.085300   2.170000   2.277700 
2.406500  2.554700   2.721000   2.904600   3.104100   3.318400 
3.546600  3.785400   4.029900   4.064800   3.691000   3.350200 
3.084000  2.932700   2.932700   3.084000   3.350200   3.691000 
4.064800  4.029900   3.785400   3.546600   3.318400   3.104100 
2.904600  2.721000   2.554700   2.406500   2.277700   2.170000 
2.085300  2.024600   1.986900   1.969400   1.969400   1.986900 
2.024600  2.131700   2.202800   2.299000   2.419000   2.560300 
2.721000  2.899500   3.094500   3.305200   3.530400   3.768400 
4.016200  4.196900   3.829300   3.469700   3.164500   2.948600 
2.869400  2.948600   3.164500   3.469700   3.829300   4.196900 
4.016200  3.768400   3.530400   3.305200   3.094500   2.899500 
2.721000  2.560300   2.419000   2.299000   2.202800   2.131700 
2.085300  2.059800   2.051900   2.059800   2.085300   2.131700 
2.257800  2.338700   2.446100   2.578100   2.731700   2.904600 
3.094500  3.300600   3.521600   3.756000   4.002400   4.248800 
3.948500  3.579800   3.249600   2.983700   2.830300   2.830300 
2.983700  3.249600   3.579800   3.948500   4.248800   4.002400 
3.756000  3.521600   3.300600   3.094500   2.904600   2.731700 
2.578100  2.446100   2.338700   2.257800   2.202800   2.170000 
2.155100  2.155100   2.170000   2.202800   2.257800   2.401700 
2.491900  2.610300   2.753900   2.919700   3.104100   3.305200 
3.521600  3.751600   3.994000   4.246200   4.036100   3.669500 
3.326100  3.027800   2.811100   2.728700   2.811100   3.027800 
3.326100  3.669500   4.036100   4.246200   3.994000   3.751600 
3.521600  3.305200   3.104100   2.919700   2.753900   2.610300 
2.491900  2.401700   2.338700   2.299000   2.277700   2.271000 
2.277700  2.299000   2.338700   2.401700   2.562100   2.661100 
2.789700  2.944900   3.122400   3.318400   3.530400   3.756000 
3.994000  4.242900   4.083000   3.728700   3.385600   3.069200 
2.806700  2.645700   2.645700   2.806700   3.069200   3.385600 
3.728700  4.083000   4.242900   3.994000   3.756000   3.530400 
3.318400  3.122400   2.944900   2.789700   2.661100   2.562100 
2.491900  2.446100   2.419000   2.406500   2.406500   2.419000 
2.446100  2.491900   2.562100   2.737700   2.844800   2.983200 
3.149900  3.339200   3.546600   3.768400   4.002400   4.246200 
4.083000  3.750100   3.418300   3.099200   2.809200   2.583200 
2.491100  2.583200   2.809200   3.099200   3.418300   3.750100 
4.083000  4.246200   4.002400   3.768400   3.546600   3.339200 
3.149900  2.983200   2.844800   2.737700   2.661100   2.610300 
2.578100  2.560300   2.554700   2.560300   2.578100   2.610300 
2.661100  2.737700   2.926200   3.039800   3.187700   3.365600 
3.567000  3.785400   4.016200   4.248800   4.036100   3.728700 
3.418300  3.110800   2.812600   2.543600   2.358800   2.358800 
2.543600  2.812600   3.110800   3.418300   3.728700   4.036100 
4.248800  4.016200   3.785400   3.567000   3.365600   3.187700 
3.039800  2.926200   2.844800   2.789700   2.753900   2.731700 
2.721000  2.721000   2.731700   2.753900   2.789700   2.844800 
2.926200  3.123300   3.242200   3.398800   3.588400   3.801800 
4.029900  4.196900   3.948500   3.669500   3.385600   3.099200 
2.812600  2.530100   2.274000   2.142100   2.274000   2.530100 
2.812600  3.099200   3.385600   3.669500   3.948500   4.196900 
4.029900  3.801800   3.588400   3.398800   3.242200   3.123300 
3.039800  2.983200   2.944900   2.919700   2.904600   2.899500 
2.904600  2.919700   2.944900   2.983200   3.039800   3.123300 
3.324700  3.445900   3.609900   3.810100   4.029100   4.064800 
3.829300  3.579800   3.326100   3.069200   2.809200   2.543600 
2.274000  2.010000   2.010000   2.274000   2.543600   2.809200 
3.069200  3.326100   3.579800   3.829300   4.064800   4.029100 
3.810100  3.609900   3.445900   3.324700   3.242200   3.187700 
3.149900  3.122400   3.104100   3.094500   3.094500   3.104100 
3.122400  3.149900   3.187700   3.242200   3.324700   3.521000 
3.639600  3.805300   3.985700   3.905300   3.691000   3.469700 
3.249600  3.027800   2.806700   2.583200   2.358800   2.142100 
2.010000  2.142100   2.358800   2.583200   2.806700   3.027800 
3.249600  3.469700   3.691000   3.905300   3.985700   3.805300 
3.639600  3.521000   3.445900   3.398800   3.365600   3.339200 
3.318400  3.305200   3.300600   3.305200   3.318400   3.339200 
3.365600  3.398800   3.445900   3.521000   3.696300   3.795700 
3.872100  3.732700   3.541000   3.350200   3.164500   2.983700 
2.811100  2.645700   2.491100   2.358800   2.274000   2.274000 
2.358800  2.491100   2.645700   2.811100   2.983700   3.164500 
3.350200  3.541000   3.732700   3.872100   3.795700   3.696300 
3.639600  3.609900   3.588400   3.567000   3.546600   3.530400 
3.521600  3.521600   3.530400   3.546600   3.567000   3.588400 
3.609900  3.639600   3.696300   3.790100   3.718100   3.562500 
3.394100  3.233400   3.084000   2.948600   2.830300   2.728700 
2.645700  2.583200   2.543600   2.530100   2.543600   2.583200 
2.645700  2.728700   2.830300   2.948600   3.084000   3.233400 
3.394100  3.562500   3.718100   3.790100   3.795700   3.805300 
3.810100  3.801800   3.785400   3.768400   3.756000   3.751600 
3.756000  3.768400   3.785400   3.801800   3.810100   3.805300 
3.795700  3.790100   3.558500   3.403500   3.257700   3.128600 
3.019500  2.932700   2.869400   2.830300   2.811100   2.806700 
2.809200  2.812600   2.812600   2.809200   2.806700   2.811100 
2.830300  2.869400   2.932700   3.019500   3.128600   3.257700 
3.403500  3.558500   3.718100   3.872100   3.985700   4.029100 
4.029900  4.016200   4.002400   3.994000   3.994000   4.002400 
4.016200  4.029900   4.029100   3.985700   3.872100   3.718100 
3.558500  3.261700   3.141800   3.046900   2.979700   2.942200 
2.932700  2.948600   2.983700   3.027800   3.069200   3.099200 
3.110800  3.099200   3.069200   3.027800   2.983700   2.948600 
2.932700  2.942200   2.979700   3.046900   3.141800   3.261700 
3.403500  3.562500   3.732700   3.905300   4.064800   4.196900 
4.248800  4.246200   4.242900   4.246200   4.248800   4.196900 
4.064800  3.905300   3.732700   3.562500   3.403500   3.261700 
3.051600  2.993600   2.969800   2.979700   3.019500   3.084000 
3.164500  3.249600   3.326100   3.385600   3.418300   3.418300 
3.385600  3.326100   3.249600   3.164500   3.084000   3.019500 
2.979700  2.969800   2.993600   3.051600   3.141800   3.257700 
3.394100  3.541000   3.691000   3.829300   3.948500   4.036100 
4.083000  4.083000   4.036100   3.948500   3.829300   3.691000 
3.541000  3.394100   3.257700   3.141800   3.051600   2.973700 
2.993600  3.046900   3.128600   3.233400   3.350200   3.469700 
3.579800  3.669500   3.728700   3.750100   3.728700   3.669500 
3.579800  3.469700   3.350200   3.233400   3.128600   3.046900 
2.993600  2.973700   2.993600   3.046900   3.128600   3.233400 
3.350200  3.469700   3.579800   3.669500   3.728700   3.750100 
3.728700  3.669500   3.579800   3.469700   3.350200   3.233400 
3.128600  3.046900   2.993600   2.973700   3.051600   3.141800 
3.257700  3.394100   3.541000   3.691000   3.829300   3.948500 
4.036100  4.083000   4.083000   4.036100   3.948500   3.829300 
3.691000  3.541000   3.394100   3.257700   3.141800   3.051600 
2.993600  2.969800   2.979700   3.019500   3.084000   3.164500 
3.249600  3.326100   3.385600   3.418300   3.418300   3.385600 
3.326100  3.249600   3.164500   3.084000   3.019500   2.979700 
2.969800  2.993600   3.051600   3.261700   3.403500   3.562500 
3.732700  3.905300   4.064800   4.196900   4.248800   4.246200 
4.242900  4.246200   4.248800   4.196900   4.064800   3.905300 
3.732700  3.562500   3.403500   3.261700   3.141800   3.046900 
2.979700  2.942200   2.932700   2.948600   2.983700   3.027800 
3.069200  3.099200   3.110800   3.099200   3.069200   3.027800 
2.983700  2.948600   2.932700   2.942200   2.979700   3.046900 
3.141800  3.261700   3.558500   3.718100   3.872100   3.985700 
4.029100  4.029900   4.016200   4.002400   3.994000   3.994000 
4.002400  4.016200   4.029900   4.029100   3.985700   3.872100 
3.718100  3.558500   3.403500   3.257700   3.128600   3.019500 
2.932700  2.869400   2.830300   2.811100   2.806700   2.809200 
2.812600  2.812600   2.809200   2.806700   2.811100   2.830300 
2.869400  2.932700   3.019500   3.128600   3.257700   3.403500 
3.558500  3.790100   3.795700   3.805300   3.810100   3.801800 
3.785400  3.768400   3.756000   3.751600   3.756000   3.768400 
3.785400  3.801800   3.810100   3.805300   3.795700   3.790100 
3.718100  3.562500   3.394100   3.233400   3.084000   2.948600 
2.830300  2.728700   2.645700   2.583200   2.543600   2.530100 
2.543600  2.583200   2.645700   2.728700   2.830300   2.948600 
3.084000  3.233400   3.394100   3.562500   3.718100   3.790100 
3.696300  3.639600   3.609900   3.588400   3.567000   3.546600 
3.530400  3.521600   3.521600   3.530400   3.546600   3.567000 
3.588400  3.609900   3.639600   3.696300   3.795700   3.872100 
3.732700  3.541000   3.350200   3.164500   2.983700   2.811100 
2.645700  2.491100   2.358800   2.274000   2.274000   2.358800 
2.491100  2.645700   2.811100   2.983700   3.164500   3.350200 
3.541000  3.732700   3.872100   3.795700   3.696300   3.521000 
3.445900  3.398800   3.365600   3.339200   3.318400   3.305200 
3.300600  3.305200   3.318400   3.339200   3.365600   3.398800 
3.445900  3.521000   3.639600   3.805300   3.985700   3.905300 
3.691000  3.469700   3.249600   3.027800   2.806700   2.583200 
2.358800  2.142100   2.010000   2.142100   2.358800   2.583200 
2.806700  3.027800   3.249600   3.469700   3.691000   3.905300 
3.985700  3.805300   3.639600   3.521000   3.324700   3.242200 